
    -----------------------------------------------------------------------
          Psi4: An Open-Source Ab Initio Electronic Structure Package
                               Psi4 1.9.1 release

                         Git: Rev {} zzzzzzz 


    D. G. A. Smith, L. A. Burns, A. C. Simmonett, R. M. Parrish,
    M. C. Schieber, R. Galvelis, P. Kraus, H. Kruse, R. Di Remigio,
    A. Alenaizan, A. M. James, S. Lehtola, J. P. Misiewicz, M. Scheurer,
    R. A. Shaw, J. B. Schriber, Y. Xie, Z. L. Glick, D. A. Sirianni,
    J. S. O'Brien, J. M. Waldrop, A. Kumar, E. G. Hohenstein,
    B. P. Pritchard, B. R. Brooks, H. F. Schaefer III, A. Yu. Sokolov,
    K. Patkowski, A. E. DePrince III, U. Bozkaya, R. A. King,
    F. A. Evangelista, J. M. Turney, T. D. Crawford, C. D. Sherrill,
    J. Chem. Phys. 152(18) 184108 (2020). https://doi.org/10.1063/5.0006002

                            Additional Code Authors
    E. T. Seidl, C. L. Janssen, E. F. Valeev, M. L. Leininger,
    J. F. Gonthier, R. M. Richard, H. R. McAlexander, M. Saitow, X. Wang,
    P. Verma, M. H. Lechner, A. Jiang, S. Behnle, A. G. Heide,
    M. F. Herbst, and D. L. Poole

             Previous Authors, Complete List of Code Contributors,
                       and Citations for Specific Modules
    https://github.com/psi4/psi4/blob/master/codemeta.json
    https://github.com/psi4/psi4/graphs/contributors
    http://psicode.org/psi4manual/master/introduction.html#citing-psifour

    -----------------------------------------------------------------------


    Psi4 started on: Sunday, 17 August 2025 05:46PM

    Process ID: 1441987
    Host:       gnode010.cluster
    PSIDATADIR: /home/hbhat/psi4conda/share/psi4
    Memory:     500.0 MiB
    Threads:    1
    
  ==> Input File <==

--------------------------------------------------------------------------
memory 1 gb

molecule hehp {
1 1
H  0.       0.      -0.386
He 0.       0.       0.386
}

set {
    reference rhf
    basis 6-31g
    ms0 false
    fci true
    diag_method rsp
    num_roots 16
    print 2
    dipmom true
    opdm true
    tdm true
}

thisenergy, ciwfn = prop('detci', properties=['DIPOLE', 'TRANSITION_DIPOLE'], return_wfn=True)

for i in range(16):
    for j in range(i+1):
        ciop_dm = ciwfn.get_opdm(i,j,'SUM',True)
        ciop_dm.print_out()

mints = MintsHelper(ciwfn.basisset())

AOdip = mints.ao_dipole()
AOdip[0].print_out()
AOdip[1].print_out()
AOdip[2].print_out()

ciwfn.Ca().print_out()               # Print orbital information




--------------------------------------------------------------------------

  Memory set to 953.674 MiB by Python driver.
   => Libint2 <=

    Primary   basis highest AM E, G, H:  6, 6, 3
    Auxiliary basis highest AM E, G, H:  7, 7, 4
    Onebody   basis highest AM E, G, H:  -, -, -
    Solid Harmonics ordering:            Gaussian

*** tstart() called on gnode010.cluster
*** at Sun Aug 17 17:46:07 2025

   => Loading Basis Set <=

    Name: 6-31G
    Role: ORBITAL
    Keyword: BASIS
    atoms 1 entry H          line    26 file /home/hbhat/psi4conda/share/psi4/basis/6-31g.gbs 
    atoms 2 entry HE         line    34 file /home/hbhat/psi4conda/share/psi4/basis/6-31g.gbs 


         ---------------------------------------------------------
                                   SCF
               by Justin Turney, Rob Parrish, Andy Simmonett
                          and Daniel G. A. Smith
                              RHF Reference
                        1 Threads,    953 MiB Core
         ---------------------------------------------------------

  ==> Geometry <==

    Molecular point group: c2v
    Full point group: C_inf_v

    Geometry (in Angstrom), charge = 1, multiplicity = 1:

       Center              X                  Y                   Z               Mass       
    ------------   -----------------  -----------------  -----------------  -----------------
         H            0.000000000000     0.000000000000    -0.616715684885     1.007825032230
         HE           0.000000000000     0.000000000000     0.155284315115     4.002603254130

  Running in c2v symmetry.

  Rotational constants: A = ************  B =     35.13250  C =     35.13250 [cm^-1]
  Rotational constants: A = ************  B = 1053245.86783  C = 1053245.86783 [MHz]
  Nuclear repulsion =    1.370925416243523

  Charge       = 1
  Multiplicity = 1
  Electrons    = 2
  Nalpha       = 1
  Nbeta        = 1

  ==> Algorithm <==

  SCF Algorithm Type is PK.
  DIIS enabled.
  MOM disabled.
  Fractional occupation disabled.
  Guess Type is SAD.
  Energy threshold   = 1.00e-10
  Density threshold  = 1.00e-10
  Integral threshold = 1.00e-12

  ==> Primary Basis <==

  -AO BASIS SET INFORMATION:
    Name                   = 6-31G
    Blend                  = 6-31G
    Total number of shells = 4
    Number of primitives   = 8
    Number of AO           = 4
    Number of SO           = 4
    Maximum AM             = 0
    Spherical Harmonics    = FALSE

  -Contraction Scheme:
    Atom   Type   All Primitives // Shells:
   ------ ------ --------------------------
       1     H     4s // 2s 
       2    HE     4s // 2s 

  ==> Integral Setup <==

  Using in-core PK algorithm.
   Calculation information:
      Number of atoms:                   2
      Number of AO shells:               4
      Number of primitives:              8
      Number of atomic orbitals:         4
      Number of basis functions:         4

      Integral cutoff                 1.00e-12
      Number of threads:                 1

  Performing in-core PK
  Using 110 doubles for integral storage.
  We computed 55 shell quartets total.
  Whereas there are 55 unique shell quartets.

  ==> DiskJK: Disk-Based J/K Matrices <==

    J tasked:                  Yes
    K tasked:                  Yes
    wK tasked:                  No
    Memory [MiB]:              715
    Schwarz Cutoff:          1E-12

    OpenMP threads:              1

  Minimum eigenvalue in the overlap matrix is 1.6084999674E-01.
  Reciprocal condition number of the overlap matrix is 6.1101689587E-02.
    Using symmetric orthogonalization.

  ==> Pre-Iterations <==

  SCF Guess: Superposition of Atomic Densities via on-the-fly atomic UHF (no occupation information).

   -------------------------
    Irrep   Nso     Nmo    
   -------------------------
     A1         4       4 
     A2         0       0 
     B1         0       0 
     B2         0       0 
   -------------------------
    Total       4       4
   -------------------------

  ==> Iterations <==

                        Total Energy        Delta E     RMS |[F,P]|

   @RHF iter SAD:    -3.47952509295405   -3.47953e+00   0.00000e+00 
   @RHF iter   1:    -2.89179510746885    5.87730e-01   4.56422e-02 ADIIS/DIIS
   @RHF iter   2:    -2.90949447568790   -1.76994e-02   6.16408e-03 ADIIS/DIIS
   @RHF iter   3:    -2.90985259125897   -3.58116e-04   4.39513e-04 ADIIS/DIIS
   @RHF iter   4:    -2.90985437750446   -1.78625e-06   2.25901e-06 DIIS
   @RHF iter   5:    -2.90985437754501   -4.05489e-11   8.95334e-08 DIIS
   @RHF iter   6:    -2.90985437754512   -1.11022e-13   1.83108e-09 DIIS
   @RHF iter   7:    -2.90985437754512    8.88178e-16   6.30462e-13 DIIS
  Energy and wave function converged.


  ==> Post-Iterations <==

    Orbital Energies [Eh]
    ---------------------

    Doubly Occupied:                                                      

       1A1    -1.632772  

    Virtual:                                                              

       2A1    -0.263114     3A1     0.439397     4A1     1.076325  

    Final Occupation by Irrep:
             A1    A2    B1    B2 
    DOCC [     1,    0,    0,    0 ]
    NA   [     1,    0,    0,    0 ]
    NB   [     1,    0,    0,    0 ]

  @RHF Final Energy:    -2.90985437754512

   => Energetics <=

    Nuclear Repulsion Energy =              1.3709254162435234
    One-Electron Energy =                  -5.2960157980259366
    Two-Electron Energy =                   1.0152360042372908
    Total Energy =                         -2.9098543775451224

Computation Completed


Properties will be evaluated at   0.000000,   0.000000,   0.000000 [a0]

Properties computed using the SCF density matrix


 Multipole Moments:

 ------------------------------------------------------------------------------------
     Multipole            Electronic (a.u.)      Nuclear  (a.u.)        Total (a.u.)
 ------------------------------------------------------------------------------------

 L = 1.  Multiply by 2.5417464519 to convert [e a0] to [Debye]
 Dipole X            :          0.0000000            0.0000000            0.0000000
 Dipole Y            :          0.0000000            0.0000000            0.0000000
 Dipole Z            :         -0.1748680           -0.5785341           -0.7534021
 Magnitude           :                                                    0.7534021

 ------------------------------------------------------------------------------------

*** tstop() called on gnode010.cluster at Sun Aug 17 17:46:07 2025
Module time:
	user time   =       0.14 seconds =       0.00 minutes
	system time =       0.01 seconds =       0.00 minutes
	total time  =          0 seconds =       0.00 minutes
Total time:
	user time   =       0.14 seconds =       0.00 minutes
	system time =       0.01 seconds =       0.00 minutes
	total time  =          0 seconds =       0.00 minutes
 MINTS: Wrapper to libmints.
   by Justin Turney

   Calculation information:
      Number of threads:                 1
      Number of atoms:                   2
      Number of AO shells:               4
      Number of SO shells:               4
      Number of primitives:              8
      Number of atomic orbitals:         4
      Number of basis functions:         4

      Number of irreps:                  4
      Integral cutoff                 1.00e-12
      Number of functions per irrep: [   4    0    0    0 ]

 OEINTS: Overlap, kinetic, potential, dipole, and quadrupole integrals
         stored in file 35.

      Computing two-electron integrals...done
      Computed 55 non-zero two-electron integrals.
        Stored in file 33.


         ---------------------------------------------------------
                          Configuration Interaction
                            (a 'D E T C I' module)

                 C. David Sherrill, Daniel G. A. Smith, and
                              Matt L. Leininger
         ---------------------------------------------------------

DAVIDSON update not available for OLSEN or MITRUSH iterators

   ==> Parameters <==

    EX LEVEL       =        2      H0 BLOCKSIZE  =     1000
    VAL EX LEVEL   =        0      H0 GUESS SIZE =     1000
    H0COUPLINGSIZE =        0      H0 COUPLING   =       NO
    MAXITER        =       24      NUM PRINT     =       20
    NUM ROOTS      =       16      ICORE         =        1
    PRINT LVL      =        2      FCI           =      YES
    R CONV         = 1.00e-04      MIXED         =      YES
    E CONV         = 1.00e-08      MIXED4        =      YES
    R4S            =       NO      REPL OTF      =       NO
    DIAG METHOD    =      RSP      FOLLOW ROOT   =        0
    PRECONDITIONER = DAVIDSON      UPDATE        = OLSEN
    S              =   0.0000      Ms0           =       NO
    GUESS VECTOR   =  H0BLOCK      OPENTYPE      =     NONE
    COLLAPSE SIZE  =        1      HD AVG        = EVANGELISTI
    MAX NUM VECS   =        0      REF SYM       =     AUTO
    IOPEN        =       NO

    EX ALLOW       =  1  1 
    STATE AVERAGE  =  0(1.00) 

   ==> CI Orbital and Space information <==

   ------------------------------------------------------
               Space    Total    A1    A2    B1    B2
   ------------------------------------------------------
                 Nso        4     4     0     0     0
                 Nmo        4     4     0     0     0
               Ndocc        1     1     0     0     0
               Nsocc        0     0     0     0     0
   ------------------------------------------------------
                       CI Spaces
   ------------------------------------------------------
        Dropped DOCC        0     0     0     0     0
              Active        4     4     0     0     0
        Dropped UOCC        0     0     0     0     0
   ------------------------------------------------------

   ==> Setting up CI strings <==

    There are 4 alpha and 4 beta strings
    The CI space requires 16 (1.60E+01) determinants and 1 blocks
    Total H0block size (including coupling): 16

   ==> Transforming CI integrals <==

	Presorting SO-basis two-electron integrals.
	Sorting File: SO Ints (nn|nn) nbuckets = 1
	Constructing frozen core operators
	Starting first half-transformation.
	h = 0; memfree         = 124999968
	h = 0; rows_per_bucket = 10
	h = 0; rows_left       = 0
	h = 0; nbuckets        = 1
	h = 1; memfree         = 124999968
	h = 1; rows_per_bucket = 0
	h = 1; rows_left       = 0
	h = 1; nbuckets        = 0
	h = 2; memfree         = 124999968
	h = 2; rows_per_bucket = 0
	h = 2; rows_left       = 0
	h = 2; nbuckets        = 0
	h = 3; memfree         = 124999968
	h = 3; rows_per_bucket = 0
	h = 3; rows_left       = 0
	h = 3; nbuckets        = 0
	Sorting half-transformed integrals.
	First half integral transformation complete.
	Starting second half-transformation.
	h = 0; memfree         = 124999968
	h = 0; rows_per_bucket = 10
	h = 0; rows_left       = 0
	h = 0; nbuckets        = 1
	h = 1; memfree         = 124999968
	h = 1; rows_per_bucket = 0
	h = 1; rows_left       = 0
	h = 1; nbuckets        = 0
	h = 2; memfree         = 124999968
	h = 2; rows_per_bucket = 0
	h = 2; rows_left       = 0
	h = 2; nbuckets        = 0
	h = 3; memfree         = 124999968
	h = 3; rows_per_bucket = 0
	h = 3; rows_left       = 0
	h = 3; nbuckets        = 0
	Two-electron integral transformation complete.

   ==> Starting CI iterations <==

    Exact Diagonalization Algorithm

   ==> Energetics <==

    SCF energy =           -2.909854377545122
    Total CI energy =      -2.932310749393183

   ==> DETCI root 0 information <==

    DETCI Root 0 energy =    -2.932310749393183

   The 16 most important determinants:

    *   1    0.996034  (    0,    0)  1A1X 
    *   2   -0.047811  (    1,    1)  2A1X 
    *   3   -0.044652  (    3,    3)  4A1X 
    *   4   -0.034978  (    1,    3)  2A1A 4A1B 
    *   5   -0.034978  (    3,    1)  2A1B 4A1A 
    *   6   -0.016502  (    2,    2)  3A1X 
    *   7   -0.015720  (    1,    2)  2A1A 3A1B 
    *   8   -0.015720  (    2,    1)  2A1B 3A1A 
    *   9    0.013309  (    0,    1)  1A1A 2A1B 
    *  10    0.013309  (    1,    0)  1A1B 2A1A 
    *  11    0.005605  (    0,    2)  1A1A 3A1B 
    *  12    0.005605  (    2,    0)  1A1B 3A1A 
    *  13   -0.001544  (    2,    3)  3A1A 4A1B 
    *  14   -0.001544  (    3,    2)  3A1B 4A1A 
    *  15    0.000487  (    3,    0)  1A1B 4A1A 
    *  16    0.000487  (    0,    3)  1A1A 4A1B 


   ==> DETCI root 1 information <==

    DETCI Root 1 energy =    -2.142097753112568

   The 16 most important determinants:

    *   1   -0.685851  (    0,    1)  1A1A 2A1B 
    *   2    0.685851  (    1,    0)  1A1B 2A1A 
    *   3    0.121477  (    2,    0)  1A1B 3A1A 
    *   4   -0.121477  (    0,    2)  1A1A 3A1B 
    *   5    0.101439  (    3,    0)  1A1B 4A1A 
    *   6   -0.101439  (    0,    3)  1A1A 4A1B 
    *   7    0.066445  (    3,    1)  2A1B 4A1A 
    *   8   -0.066445  (    1,    3)  2A1A 4A1B 
    *   9   -0.010033  (    2,    1)  2A1B 3A1A 
    *  10    0.010033  (    1,    2)  2A1A 3A1B 
    *  11   -0.006776  (    2,    3)  3A1A 4A1B 
    *  12    0.006776  (    3,    2)  3A1B 4A1A 


   ==> DETCI root 2 information <==

    DETCI Root 2 energy =    -1.964042841147986

   The 16 most important determinants:

    *   1   -0.682719  (    1,    0)  1A1B 2A1A 
    *   2   -0.682719  (    0,    1)  1A1A 2A1B 
    *   3    0.199508  (    1,    1)  2A1X 
    *   4   -0.076121  (    2,    0)  1A1B 3A1A 
    *   5   -0.076121  (    0,    2)  1A1A 3A1B 
    *   6    0.073875  (    1,    3)  2A1A 4A1B 
    *   7    0.073875  (    3,    1)  2A1B 4A1A 
    *   8    0.033875  (    0,    0)  1A1X 
    *   9   -0.030747  (    3,    3)  4A1X 
    *  10    0.030745  (    1,    2)  2A1A 3A1B 
    *  11    0.030745  (    2,    1)  2A1B 3A1A 
    *  12    0.023079  (    2,    2)  3A1X 
    *  13    0.015960  (    3,    2)  3A1B 4A1A 
    *  14    0.015960  (    2,    3)  3A1A 4A1B 
    *  15    0.015116  (    0,    3)  1A1A 4A1B 
    *  16    0.015116  (    3,    0)  1A1B 4A1A 


   ==> DETCI root 3 information <==

    DETCI Root 3 energy =    -1.415524844126480

   The 16 most important determinants:

    *   1    0.686667  (    2,    0)  1A1B 3A1A 
    *   2   -0.686667  (    0,    2)  1A1A 3A1B 
    *   3   -0.111479  (    1,    0)  1A1B 2A1A 
    *   4    0.111479  (    0,    1)  1A1A 2A1B 
    *   5   -0.080538  (    2,    1)  2A1B 3A1A 
    *   6    0.080538  (    1,    2)  2A1A 3A1B 
    *   7   -0.069029  (    2,    3)  3A1A 4A1B 
    *   8    0.069029  (    3,    2)  3A1B 4A1A 
    *   9   -0.064550  (    3,    0)  1A1B 4A1A 
    *  10    0.064550  (    0,    3)  1A1A 4A1B 
    *  11    0.025343  (    1,    3)  2A1A 4A1B 
    *  12   -0.025343  (    3,    1)  2A1B 4A1A 


   ==> DETCI root 4 information <==

    DETCI Root 4 energy =    -1.352826159810197

   The 16 most important determinants:

    *   1   -0.682785  (    0,    2)  1A1A 3A1B 
    *   2   -0.682785  (    2,    0)  1A1B 3A1A 
    *   3    0.125632  (    1,    2)  2A1A 3A1B 
    *   4    0.125632  (    2,    1)  2A1B 3A1A 
    *   5    0.096069  (    3,    2)  3A1B 4A1A 
    *   6    0.096069  (    2,    3)  3A1A 4A1B 
    *   7    0.088595  (    0,    1)  1A1A 2A1B 
    *   8    0.088595  (    1,    0)  1A1B 2A1A 
    *   9    0.032655  (    2,    2)  3A1X 
    *  10    0.020147  (    1,    1)  2A1X 
    *  11    0.012027  (    0,    0)  1A1X 
    *  12    0.008914  (    3,    3)  4A1X 
    *  13    0.007758  (    1,    3)  2A1A 4A1B 
    *  14    0.007758  (    3,    1)  2A1B 4A1A 
    *  15    0.005889  (    0,    3)  1A1A 4A1B 
    *  16    0.005889  (    3,    0)  1A1B 4A1A 


   ==> DETCI root 5 information <==

    DETCI Root 5 energy =    -0.996884577649890

   The 16 most important determinants:

    *   1    0.693489  (    0,    3)  1A1A 4A1B 
    *   2   -0.693489  (    3,    0)  1A1B 4A1A 
    *   3    0.102868  (    1,    0)  1A1B 2A1A 
    *   4   -0.102868  (    0,    1)  1A1A 2A1B 
    *   5    0.077461  (    3,    1)  2A1B 4A1A 
    *   6   -0.077461  (    1,    3)  2A1A 4A1B 
    *   7    0.041322  (    0,    2)  1A1A 3A1B 
    *   8   -0.041322  (    2,    0)  1A1B 3A1A 
    *   9   -0.019864  (    3,    2)  3A1B 4A1A 
    *  10    0.019864  (    2,    3)  3A1A 4A1B 
    *  11   -0.019729  (    1,    2)  2A1A 3A1B 
    *  12    0.019729  (    2,    1)  2A1B 3A1A 


   ==> DETCI root 6 information <==

    DETCI Root 6 energy =    -0.665420297979947

   The 16 most important determinants:

    *   1   -0.643545  (    3,    0)  1A1B 4A1A 
    *   2   -0.643545  (    0,    3)  1A1A 4A1B 
    *   3   -0.363185  (    1,    1)  2A1X 
    *   4   -0.094589  (    3,    1)  2A1B 4A1A 
    *   5   -0.094589  (    1,    3)  2A1A 4A1B 
    *   6    0.083109  (    2,    2)  3A1X 
    *   7   -0.074142  (    0,    1)  1A1A 2A1B 
    *   8   -0.074142  (    1,    0)  1A1B 2A1A 
    *   9    0.036009  (    2,    1)  2A1B 3A1A 
    *  10    0.036009  (    1,    2)  2A1A 3A1B 
    *  11    0.026818  (    3,    3)  4A1X 
    *  12   -0.017609  (    0,    0)  1A1X 
    *  13   -0.013398  (    2,    0)  1A1B 3A1A 
    *  14   -0.013398  (    0,    2)  1A1A 3A1B 
    *  15   -0.003036  (    3,    2)  3A1B 4A1A 
    *  16   -0.003036  (    2,    3)  3A1A 4A1B 


   ==> DETCI root 7 information <==

    DETCI Root 7 energy =    -0.575668807064620

   The 16 most important determinants:

    *   1    0.862799  (    1,    1)  2A1X 
    *   2   -0.273973  (    3,    0)  1A1B 4A1A 
    *   3   -0.273973  (    0,    3)  1A1A 4A1B 
    *   4    0.132885  (    1,    0)  1A1B 2A1A 
    *   5    0.132885  (    0,    1)  1A1A 2A1B 
    *   6    0.124992  (    2,    1)  2A1B 3A1A 
    *   7    0.124992  (    1,    2)  2A1A 3A1B 
    *   8    0.119425  (    3,    1)  2A1B 4A1A 
    *   9    0.119425  (    1,    3)  2A1A 4A1B 
    *  10   -0.049850  (    2,    2)  3A1X 
    *  11    0.049442  (    0,    0)  1A1X 
    *  12    0.048870  (    0,    2)  1A1A 3A1B 
    *  13    0.048870  (    2,    0)  1A1B 3A1A 
    *  14   -0.017034  (    3,    2)  3A1B 4A1A 
    *  15   -0.017034  (    2,    3)  3A1A 4A1B 
    *  16    0.009048  (    3,    3)  4A1X 


   ==> DETCI root 8 information <==

    DETCI Root 8 energy =    -0.087635609746607

   The 16 most important determinants:

    *   1    0.649927  (    2,    1)  2A1B 3A1A 
    *   2   -0.649927  (    1,    2)  2A1A 3A1B 
    *   3   -0.208778  (    3,    1)  2A1B 4A1A 
    *   4    0.208778  (    1,    3)  2A1A 4A1B 
    *   5    0.161666  (    2,    3)  3A1A 4A1B 
    *   6   -0.161666  (    3,    2)  3A1B 4A1A 
    *   7   -0.087148  (    0,    2)  1A1A 3A1B 
    *   8    0.087148  (    2,    0)  1A1B 3A1A 
    *   9   -0.016334  (    0,    1)  1A1A 2A1B 
    *  10    0.016334  (    1,    0)  1A1B 2A1A 
    *  11    0.002970  (    0,    3)  1A1A 4A1B 
    *  12   -0.002970  (    3,    0)  1A1B 4A1A 


   ==> DETCI root 9 information <==

    DETCI Root 9 energy =     0.081792989816061

   The 16 most important determinants:

    *   1    0.549825  (    1,    2)  2A1A 3A1B 
    *   2    0.549825  (    2,    1)  2A1B 3A1A 
    *   3   -0.405362  (    1,    3)  2A1A 4A1B 
    *   4   -0.405362  (    3,    1)  2A1B 4A1A 
    *   5    0.134119  (    2,    2)  3A1X 
    *   6   -0.107872  (    3,    3)  4A1X 
    *   7    0.095145  (    0,    2)  1A1A 3A1B 
    *   8    0.095145  (    2,    0)  1A1B 3A1A 
    *   9    0.092776  (    0,    3)  1A1A 4A1B 
    *  10    0.092776  (    3,    0)  1A1B 4A1A 
    *  11   -0.021211  (    0,    1)  1A1A 2A1B 
    *  12   -0.021211  (    1,    0)  1A1B 2A1A 
    *  13    0.016659  (    1,    1)  2A1X 
    *  14   -0.014880  (    2,    3)  3A1A 4A1B 
    *  15   -0.014880  (    3,    2)  3A1B 4A1A 
    *  16   -0.013570  (    0,    0)  1A1X 


   ==> DETCI root 10 information <==

    DETCI Root 10 energy =     0.217150182674890

   The 16 most important determinants:

    *   1    0.651812  (    3,    1)  2A1B 4A1A 
    *   2   -0.651812  (    1,    3)  2A1A 4A1B 
    *   3   -0.232133  (    1,    2)  2A1A 3A1B 
    *   4    0.232133  (    2,    1)  2A1B 3A1A 
    *   5   -0.101277  (    2,    3)  3A1A 4A1B 
    *   6    0.101277  (    3,    2)  3A1B 4A1A 
    *   7   -0.076229  (    1,    0)  1A1B 2A1A 
    *   8    0.076229  (    0,    1)  1A1A 2A1B 
    *   9    0.063136  (    3,    0)  1A1B 4A1A 
    *  10   -0.063136  (    0,    3)  1A1A 4A1B 
    *  11   -0.034661  (    0,    2)  1A1A 3A1B 
    *  12    0.034661  (    2,    0)  1A1B 3A1A 


   ==> DETCI root 11 information <==

    DETCI Root 11 energy =     0.442295207699647

   The 16 most important determinants:

    *   1    0.495137  (    3,    1)  2A1B 4A1A 
    *   2    0.495137  (    1,    3)  2A1A 4A1B 
    *   3    0.380409  (    2,    1)  2A1B 3A1A 
    *   4    0.380409  (    1,    2)  2A1A 3A1B 
    *   5   -0.258125  (    1,    1)  2A1X 
    *   6    0.224122  (    2,    3)  3A1A 4A1B 
    *   7    0.224122  (    3,    2)  3A1B 4A1A 
    *   8    0.144640  (    3,    3)  4A1X 
    *   9    0.105713  (    0,    2)  1A1A 3A1B 
    *  10    0.105713  (    2,    0)  1A1B 3A1A 
    *  11   -0.083987  (    2,    2)  3A1X 
    *  12    0.038363  (    0,    0)  1A1X 
    *  13    0.022998  (    1,    0)  1A1B 2A1A 
    *  14    0.022998  (    0,    1)  1A1A 2A1B 
    *  15    0.012504  (    3,    0)  1A1B 4A1A 
    *  16    0.012504  (    0,    3)  1A1A 4A1B 


   ==> DETCI root 12 information <==

    DETCI Root 12 energy =     0.698817046381269

   The 16 most important determinants:

    *   1    0.865252  (    2,    2)  3A1X 
    *   2   -0.296843  (    2,    3)  3A1A 4A1B 
    *   3   -0.296843  (    3,    2)  3A1B 4A1A 
    *   4    0.186318  (    1,    3)  2A1A 4A1B 
    *   5    0.186318  (    3,    1)  2A1B 4A1A 
    *   6    0.030482  (    0,    3)  1A1A 4A1B 
    *   7    0.030482  (    3,    0)  1A1B 4A1A 
    *   8    0.029809  (    0,    1)  1A1A 2A1B 
    *   9    0.029809  (    1,    0)  1A1B 2A1A 
    *  10    0.026211  (    0,    0)  1A1X 
    *  11    0.022520  (    2,    1)  2A1B 3A1A 
    *  12    0.022520  (    1,    2)  2A1A 3A1B 
    *  13   -0.010573  (    0,    2)  1A1A 3A1B 
    *  14   -0.010573  (    2,    0)  1A1B 3A1A 
    *  15   -0.010004  (    1,    1)  2A1X 
    *  16    0.004171  (    3,    3)  4A1X 


   ==> DETCI root 13 information <==

    DETCI Root 13 energy =     0.902075124082132

   The 16 most important determinants:

    *   1    0.677054  (    2,    3)  3A1A 4A1B 
    *   2   -0.677054  (    3,    2)  3A1B 4A1A 
    *   3   -0.143161  (    1,    3)  2A1A 4A1B 
    *   4    0.143161  (    3,    1)  2A1B 4A1A 
    *   5   -0.129356  (    2,    1)  2A1B 3A1A 
    *   6    0.129356  (    1,    2)  2A1A 3A1B 
    *   7    0.056813  (    2,    0)  1A1B 3A1A 
    *   8   -0.056813  (    0,    2)  1A1A 3A1B 
    *   9   -0.024933  (    0,    3)  1A1A 4A1B 
    *  10    0.024933  (    3,    0)  1A1B 4A1A 
    *  11    0.022823  (    0,    1)  1A1A 2A1B 
    *  12   -0.022823  (    1,    0)  1A1B 2A1A 


   ==> DETCI root 14 information <==

    DETCI Root 14 energy =     1.099155014845216

   The 16 most important determinants:

    *   1   -0.585964  (    3,    2)  3A1B 4A1A 
    *   2   -0.585964  (    2,    3)  3A1A 4A1B 
    *   3   -0.448508  (    2,    2)  3A1X 
    *   4    0.205464  (    3,    3)  4A1X 
    *   5    0.133541  (    1,    2)  2A1A 3A1B 
    *   6    0.133541  (    2,    1)  2A1B 3A1A 
    *   7   -0.097890  (    1,    1)  2A1X 
    *   8    0.084416  (    3,    1)  2A1B 4A1A 
    *   9    0.084416  (    1,    3)  2A1A 4A1B 
    *  10   -0.069858  (    0,    2)  1A1A 3A1B 
    *  11   -0.069858  (    2,    0)  1A1B 3A1A 
    *  12   -0.017016  (    1,    0)  1A1B 2A1A 
    *  13   -0.017016  (    0,    1)  1A1A 2A1B 
    *  14    0.006646  (    0,    0)  1A1X 
    *  15    0.004095  (    3,    0)  1A1B 4A1A 
    *  16    0.004095  (    0,    3)  1A1A 4A1B 


   ==> DETCI root 15 information <==

    DETCI Root 15 energy =     1.427315657520074

   The 16 most important determinants:

    *   1    0.959891  (    3,    3)  4A1X 
    *   2   -0.136858  (    3,    1)  2A1B 4A1A 
    *   3   -0.136858  (    1,    3)  2A1A 4A1B 
    *   4    0.117787  (    2,    2)  3A1X 
    *   5    0.091064  (    3,    2)  3A1B 4A1A 
    *   6    0.091064  (    2,    3)  3A1A 4A1B 
    *   7    0.067758  (    1,    1)  2A1X 
    *   8    0.038490  (    0,    0)  1A1X 
    *   9    0.028548  (    0,    3)  1A1A 4A1B 
    *  10    0.028548  (    3,    0)  1A1B 4A1A 
    *  11   -0.027312  (    1,    2)  2A1A 3A1B 
    *  12   -0.027312  (    2,    1)  2A1B 3A1A 
    *  13   -0.023590  (    0,    1)  1A1A 2A1B 
    *  14   -0.023590  (    1,    0)  1A1B 2A1A 
    *  15    0.013839  (    0,    2)  1A1A 3A1B 
    *  16    0.013839  (    2,    0)  1A1B 3A1A 

		 "A good bug is a dead bug" 

			 - Starship Troopers

		 "I didn't write FORTRAN.  That's the problem."

			 - Edward Valeev


Properties will be evaluated at   0.000000,   0.000000,   0.000000 [a0]

Properties computed using the DETCI density matrix


 Multipole Moments:

 ------------------------------------------------------------------------------------
     Multipole            Electronic (a.u.)      Nuclear  (a.u.)        Total (a.u.)
 ------------------------------------------------------------------------------------

 L = 1.  Multiply by 2.5417464519 to convert [e a0] to [Debye]
 Dipole X            :          0.0000000            0.0000000            0.0000000
 Dipole Y            :          0.0000000            0.0000000            0.0000000
 Dipole Z            :         -0.1299005           -0.5785341           -0.7084346
 Magnitude           :                                                    0.7084346

 ------------------------------------------------------------------------------------


Properties will be evaluated at   0.000000,   0.000000,   0.000000 [a0]

Properties computed using the CI density matrix


 Multipole Moments:

 ------------------------------------------------------------------------------------
     Multipole            Electronic (a.u.)      Nuclear  (a.u.)        Total (a.u.)
 ------------------------------------------------------------------------------------

 L = 1.  Multiply by 2.5417464519 to convert [e a0] to [Debye]
 Dipole X            :          0.0000000            0.0000000            0.0000000
 Dipole Y            :          0.0000000            0.0000000            0.0000000
 Dipole Z            :         -0.1299005           -0.5785341           -0.7084346
 Magnitude           :                                                    0.7084346

 ------------------------------------------------------------------------------------

   ===> CI properties for all CI roots <=== 


Properties computed using the CI ROOT 0 density matrix


 Multipole Moments:

 ------------------------------------------------------------------------------------
     Multipole            Electronic (a.u.)      Nuclear  (a.u.)        Total (a.u.)
 ------------------------------------------------------------------------------------

 L = 1.  Multiply by 2.5417464519 to convert [e a0] to [Debye]
 Dipole X            :          0.0000000            0.0000000            0.0000000
 Dipole Y            :          0.0000000            0.0000000            0.0000000
 Dipole Z            :         -0.1299005           -0.5785341           -0.7084346
 Magnitude           :                                                    0.7084346

 ------------------------------------------------------------------------------------

Properties computed using the CI ROOT 1 density matrix


 Multipole Moments:

 ------------------------------------------------------------------------------------
     Multipole            Electronic (a.u.)      Nuclear  (a.u.)        Total (a.u.)
 ------------------------------------------------------------------------------------

 L = 1.  Multiply by 2.5417464519 to convert [e a0] to [Debye]
 Dipole X            :          0.0000000            0.0000000            0.0000000
 Dipole Y            :          0.0000000            0.0000000            0.0000000
 Dipole Z            :          1.1780107           -0.5785341            0.5994766
 Magnitude           :                                                    0.5994766

 ------------------------------------------------------------------------------------

Properties computed using the CI ROOT 2 density matrix


 Multipole Moments:

 ------------------------------------------------------------------------------------
     Multipole            Electronic (a.u.)      Nuclear  (a.u.)        Total (a.u.)
 ------------------------------------------------------------------------------------

 L = 1.  Multiply by 2.5417464519 to convert [e a0] to [Debye]
 Dipole X            :          0.0000000            0.0000000            0.0000000
 Dipole Y            :          0.0000000            0.0000000            0.0000000
 Dipole Z            :          0.9419100           -0.5785341            0.3633760
 Magnitude           :                                                    0.3633760

 ------------------------------------------------------------------------------------

Properties computed using the CI ROOT 3 density matrix


 Multipole Moments:

 ------------------------------------------------------------------------------------
     Multipole            Electronic (a.u.)      Nuclear  (a.u.)        Total (a.u.)
 ------------------------------------------------------------------------------------

 L = 1.  Multiply by 2.5417464519 to convert [e a0] to [Debye]
 Dipole X            :          0.0000000            0.0000000            0.0000000
 Dipole Y            :          0.0000000            0.0000000            0.0000000
 Dipole Z            :          0.7395137           -0.5785341            0.1609796
 Magnitude           :                                                    0.1609796

 ------------------------------------------------------------------------------------

Properties computed using the CI ROOT 4 density matrix


 Multipole Moments:

 ------------------------------------------------------------------------------------
     Multipole            Electronic (a.u.)      Nuclear  (a.u.)        Total (a.u.)
 ------------------------------------------------------------------------------------

 L = 1.  Multiply by 2.5417464519 to convert [e a0] to [Debye]
 Dipole X            :          0.0000000            0.0000000            0.0000000
 Dipole Y            :          0.0000000            0.0000000            0.0000000
 Dipole Z            :          0.8039152           -0.5785341            0.2253811
 Magnitude           :                                                    0.2253811

 ------------------------------------------------------------------------------------

Properties computed using the CI ROOT 5 density matrix


 Multipole Moments:

 ------------------------------------------------------------------------------------
     Multipole            Electronic (a.u.)      Nuclear  (a.u.)        Total (a.u.)
 ------------------------------------------------------------------------------------

 L = 1.  Multiply by 2.5417464519 to convert [e a0] to [Debye]
 Dipole X            :          0.0000000            0.0000000            0.0000000
 Dipole Y            :          0.0000000            0.0000000            0.0000000
 Dipole Z            :         -0.0972232           -0.5785341           -0.6757573
 Magnitude           :                                                    0.6757573

 ------------------------------------------------------------------------------------

Properties computed using the CI ROOT 6 density matrix


 Multipole Moments:

 ------------------------------------------------------------------------------------
     Multipole            Electronic (a.u.)      Nuclear  (a.u.)        Total (a.u.)
 ------------------------------------------------------------------------------------

 L = 1.  Multiply by 2.5417464519 to convert [e a0] to [Debye]
 Dipole X            :          0.0000000            0.0000000            0.0000000
 Dipole Y            :          0.0000000            0.0000000            0.0000000
 Dipole Z            :          0.3912281           -0.5785341           -0.1873060
 Magnitude           :                                                    0.1873060

 ------------------------------------------------------------------------------------

Properties computed using the CI ROOT 7 density matrix


 Multipole Moments:

 ------------------------------------------------------------------------------------
     Multipole            Electronic (a.u.)      Nuclear  (a.u.)        Total (a.u.)
 ------------------------------------------------------------------------------------

 L = 1.  Multiply by 2.5417464519 to convert [e a0] to [Debye]
 Dipole X            :          0.0000000            0.0000000            0.0000000
 Dipole Y            :          0.0000000            0.0000000            0.0000000
 Dipole Z            :          2.3144400           -0.5785341            1.7359060
 Magnitude           :                                                    1.7359060

 ------------------------------------------------------------------------------------

Properties computed using the CI ROOT 8 density matrix


 Multipole Moments:

 ------------------------------------------------------------------------------------
     Multipole            Electronic (a.u.)      Nuclear  (a.u.)        Total (a.u.)
 ------------------------------------------------------------------------------------

 L = 1.  Multiply by 2.5417464519 to convert [e a0] to [Debye]
 Dipole X            :          0.0000000            0.0000000            0.0000000
 Dipole Y            :          0.0000000            0.0000000            0.0000000
 Dipole Z            :          1.6979296           -0.5785341            1.1193955
 Magnitude           :                                                    1.1193955

 ------------------------------------------------------------------------------------

Properties computed using the CI ROOT 9 density matrix


 Multipole Moments:

 ------------------------------------------------------------------------------------
     Multipole            Electronic (a.u.)      Nuclear  (a.u.)        Total (a.u.)
 ------------------------------------------------------------------------------------

 L = 1.  Multiply by 2.5417464519 to convert [e a0] to [Debye]
 Dipole X            :          0.0000000            0.0000000            0.0000000
 Dipole Y            :          0.0000000            0.0000000            0.0000000
 Dipole Z            :          1.0653156           -0.5785341            0.4867815
 Magnitude           :                                                    0.4867815

 ------------------------------------------------------------------------------------

Properties computed using the CI ROOT 10 density matrix


 Multipole Moments:

 ------------------------------------------------------------------------------------
     Multipole            Electronic (a.u.)      Nuclear  (a.u.)        Total (a.u.)
 ------------------------------------------------------------------------------------

 L = 1.  Multiply by 2.5417464519 to convert [e a0] to [Debye]
 Dipole X            :          0.0000000            0.0000000            0.0000000
 Dipole Y            :          0.0000000            0.0000000            0.0000000
 Dipole Z            :          1.9906399           -0.5785341            1.4121058
 Magnitude           :                                                    1.4121058

 ------------------------------------------------------------------------------------

Properties computed using the CI ROOT 11 density matrix


 Multipole Moments:

 ------------------------------------------------------------------------------------
     Multipole            Electronic (a.u.)      Nuclear  (a.u.)        Total (a.u.)
 ------------------------------------------------------------------------------------

 L = 1.  Multiply by 2.5417464519 to convert [e a0] to [Debye]
 Dipole X            :          0.0000000            0.0000000            0.0000000
 Dipole Y            :          0.0000000            0.0000000            0.0000000
 Dipole Z            :          2.4386016           -0.5785341            1.8600676
 Magnitude           :                                                    1.8600676

 ------------------------------------------------------------------------------------

Properties computed using the CI ROOT 12 density matrix


 Multipole Moments:

 ------------------------------------------------------------------------------------
     Multipole            Electronic (a.u.)      Nuclear  (a.u.)        Total (a.u.)
 ------------------------------------------------------------------------------------

 L = 1.  Multiply by 2.5417464519 to convert [e a0] to [Debye]
 Dipole X            :          0.0000000            0.0000000            0.0000000
 Dipole Y            :          0.0000000            0.0000000            0.0000000
 Dipole Z            :          0.8651489           -0.5785341            0.2866148
 Magnitude           :                                                    0.2866148

 ------------------------------------------------------------------------------------

Properties computed using the CI ROOT 13 density matrix


 Multipole Moments:

 ------------------------------------------------------------------------------------
     Multipole            Electronic (a.u.)      Nuclear  (a.u.)        Total (a.u.)
 ------------------------------------------------------------------------------------

 L = 1.  Multiply by 2.5417464519 to convert [e a0] to [Debye]
 Dipole X            :          0.0000000            0.0000000            0.0000000
 Dipole Y            :          0.0000000            0.0000000            0.0000000
 Dipole Z            :          1.0469062           -0.5785341            0.4683721
 Magnitude           :                                                    0.4683721

 ------------------------------------------------------------------------------------

Properties computed using the CI ROOT 14 density matrix


 Multipole Moments:

 ------------------------------------------------------------------------------------
     Multipole            Electronic (a.u.)      Nuclear  (a.u.)        Total (a.u.)
 ------------------------------------------------------------------------------------

 L = 1.  Multiply by 2.5417464519 to convert [e a0] to [Debye]
 Dipole X            :          0.0000000            0.0000000            0.0000000
 Dipole Y            :          0.0000000            0.0000000            0.0000000
 Dipole Z            :          1.8901972           -0.5785341            1.3116631
 Magnitude           :                                                    1.3116631

 ------------------------------------------------------------------------------------

Properties computed using the CI ROOT 15 density matrix


 Multipole Moments:

 ------------------------------------------------------------------------------------
     Multipole            Electronic (a.u.)      Nuclear  (a.u.)        Total (a.u.)
 ------------------------------------------------------------------------------------

 L = 1.  Multiply by 2.5417464519 to convert [e a0] to [Debye]
 Dipole X            :          0.0000000            0.0000000            0.0000000
 Dipole Y            :          0.0000000            0.0000000            0.0000000
 Dipole Z            :          0.3454387           -0.5785341           -0.2330954
 Magnitude           :                                                    0.2330954

 ------------------------------------------------------------------------------------

   ===> CI properties for all CI transition density matrices <=== 


Properties computed using the CI ROOT 0 -> ROOT 1 density matrix


Transition Multipole Moments:

 ------------------------------------------------------------------------------------
     Multipole            Electronic (a.u.)      Nuclear  (a.u.)        Total (a.u.)
 ------------------------------------------------------------------------------------

 L = 1.  Multiply by 2.5417464519 to convert [e a0] to [Debye]
 Dipole X            :          0.0000000            0.0000000            0.0000000
 Dipole Y            :          0.0000000            0.0000000            0.0000000
 Dipole Z            :          0.9214391            0.0000000            0.9214391
 Magnitude           :                                                    0.9214391

 ------------------------------------------------------------------------------------

Properties computed using the CI ROOT 0 -> ROOT 2 density matrix


Transition Multipole Moments:

 ------------------------------------------------------------------------------------
     Multipole            Electronic (a.u.)      Nuclear  (a.u.)        Total (a.u.)
 ------------------------------------------------------------------------------------

 L = 1.  Multiply by 2.5417464519 to convert [e a0] to [Debye]
 Dipole X            :          0.0000000            0.0000000            0.0000000
 Dipole Y            :          0.0000000            0.0000000            0.0000000
 Dipole Z            :         -0.8191672            0.0000000           -0.8191672
 Magnitude           :                                                    0.8191672

 ------------------------------------------------------------------------------------

Properties computed using the CI ROOT 0 -> ROOT 3 density matrix


Transition Multipole Moments:

 ------------------------------------------------------------------------------------
     Multipole            Electronic (a.u.)      Nuclear  (a.u.)        Total (a.u.)
 ------------------------------------------------------------------------------------

 L = 1.  Multiply by 2.5417464519 to convert [e a0] to [Debye]
 Dipole X            :          0.0000000            0.0000000            0.0000000
 Dipole Y            :          0.0000000            0.0000000            0.0000000
 Dipole Z            :          0.3678862            0.0000000            0.3678862
 Magnitude           :                                                    0.3678862

 ------------------------------------------------------------------------------------

Properties computed using the CI ROOT 0 -> ROOT 4 density matrix


Transition Multipole Moments:

 ------------------------------------------------------------------------------------
     Multipole            Electronic (a.u.)      Nuclear  (a.u.)        Total (a.u.)
 ------------------------------------------------------------------------------------

 L = 1.  Multiply by 2.5417464519 to convert [e a0] to [Debye]
 Dipole X            :          0.0000000            0.0000000            0.0000000
 Dipole Y            :          0.0000000            0.0000000            0.0000000
 Dipole Z            :         -0.3817928            0.0000000           -0.3817928
 Magnitude           :                                                    0.3817928

 ------------------------------------------------------------------------------------

Properties computed using the CI ROOT 0 -> ROOT 5 density matrix


Transition Multipole Moments:

 ------------------------------------------------------------------------------------
     Multipole            Electronic (a.u.)      Nuclear  (a.u.)        Total (a.u.)
 ------------------------------------------------------------------------------------

 L = 1.  Multiply by 2.5417464519 to convert [e a0] to [Debye]
 Dipole X            :          0.0000000            0.0000000            0.0000000
 Dipole Y            :          0.0000000            0.0000000            0.0000000
 Dipole Z            :          0.0979860            0.0000000            0.0979860
 Magnitude           :                                                    0.0979860

 ------------------------------------------------------------------------------------

Properties computed using the CI ROOT 0 -> ROOT 6 density matrix


Transition Multipole Moments:

 ------------------------------------------------------------------------------------
     Multipole            Electronic (a.u.)      Nuclear  (a.u.)        Total (a.u.)
 ------------------------------------------------------------------------------------

 L = 1.  Multiply by 2.5417464519 to convert [e a0] to [Debye]
 Dipole X            :          0.0000000            0.0000000            0.0000000
 Dipole Y            :          0.0000000            0.0000000            0.0000000
 Dipole Z            :         -0.0002474            0.0000000           -0.0002474
 Magnitude           :                                                    0.0002474

 ------------------------------------------------------------------------------------

Properties computed using the CI ROOT 0 -> ROOT 7 density matrix


Transition Multipole Moments:

 ------------------------------------------------------------------------------------
     Multipole            Electronic (a.u.)      Nuclear  (a.u.)        Total (a.u.)
 ------------------------------------------------------------------------------------

 L = 1.  Multiply by 2.5417464519 to convert [e a0] to [Debye]
 Dipole X            :          0.0000000            0.0000000            0.0000000
 Dipole Y            :          0.0000000            0.0000000            0.0000000
 Dipole Z            :          0.0937117            0.0000000            0.0937117
 Magnitude           :                                                    0.0937117

 ------------------------------------------------------------------------------------

Properties computed using the CI ROOT 0 -> ROOT 8 density matrix


Transition Multipole Moments:

 ------------------------------------------------------------------------------------
     Multipole            Electronic (a.u.)      Nuclear  (a.u.)        Total (a.u.)
 ------------------------------------------------------------------------------------

 L = 1.  Multiply by 2.5417464519 to convert [e a0] to [Debye]
 Dipole X            :          0.0000000            0.0000000            0.0000000
 Dipole Y            :          0.0000000            0.0000000            0.0000000
 Dipole Z            :          0.0524713            0.0000000            0.0524713
 Magnitude           :                                                    0.0524713

 ------------------------------------------------------------------------------------

Properties computed using the CI ROOT 0 -> ROOT 9 density matrix


Transition Multipole Moments:

 ------------------------------------------------------------------------------------
     Multipole            Electronic (a.u.)      Nuclear  (a.u.)        Total (a.u.)
 ------------------------------------------------------------------------------------

 L = 1.  Multiply by 2.5417464519 to convert [e a0] to [Debye]
 Dipole X            :          0.0000000            0.0000000            0.0000000
 Dipole Y            :          0.0000000            0.0000000            0.0000000
 Dipole Z            :          0.0242570            0.0000000            0.0242570
 Magnitude           :                                                    0.0242570

 ------------------------------------------------------------------------------------

Properties computed using the CI ROOT 0 -> ROOT 10 density matrix


Transition Multipole Moments:

 ------------------------------------------------------------------------------------
     Multipole            Electronic (a.u.)      Nuclear  (a.u.)        Total (a.u.)
 ------------------------------------------------------------------------------------

 L = 1.  Multiply by 2.5417464519 to convert [e a0] to [Debye]
 Dipole X            :          0.0000000            0.0000000            0.0000000
 Dipole Y            :          0.0000000            0.0000000            0.0000000
 Dipole Z            :         -0.0104784            0.0000000           -0.0104784
 Magnitude           :                                                    0.0104784

 ------------------------------------------------------------------------------------

Properties computed using the CI ROOT 0 -> ROOT 11 density matrix


Transition Multipole Moments:

 ------------------------------------------------------------------------------------
     Multipole            Electronic (a.u.)      Nuclear  (a.u.)        Total (a.u.)
 ------------------------------------------------------------------------------------

 L = 1.  Multiply by 2.5417464519 to convert [e a0] to [Debye]
 Dipole X            :          0.0000000            0.0000000            0.0000000
 Dipole Y            :          0.0000000            0.0000000            0.0000000
 Dipole Z            :          0.0456795            0.0000000            0.0456795
 Magnitude           :                                                    0.0456795

 ------------------------------------------------------------------------------------

Properties computed using the CI ROOT 0 -> ROOT 12 density matrix


Transition Multipole Moments:

 ------------------------------------------------------------------------------------
     Multipole            Electronic (a.u.)      Nuclear  (a.u.)        Total (a.u.)
 ------------------------------------------------------------------------------------

 L = 1.  Multiply by 2.5417464519 to convert [e a0] to [Debye]
 Dipole X            :          0.0000000            0.0000000            0.0000000
 Dipole Y            :          0.0000000            0.0000000            0.0000000
 Dipole Z            :          0.0111542            0.0000000            0.0111542
 Magnitude           :                                                    0.0111542

 ------------------------------------------------------------------------------------

Properties computed using the CI ROOT 0 -> ROOT 13 density matrix


Transition Multipole Moments:

 ------------------------------------------------------------------------------------
     Multipole            Electronic (a.u.)      Nuclear  (a.u.)        Total (a.u.)
 ------------------------------------------------------------------------------------

 L = 1.  Multiply by 2.5417464519 to convert [e a0] to [Debye]
 Dipole X            :          0.0000000            0.0000000            0.0000000
 Dipole Y            :          0.0000000            0.0000000            0.0000000
 Dipole Z            :          0.0092935            0.0000000            0.0092935
 Magnitude           :                                                    0.0092935

 ------------------------------------------------------------------------------------

Properties computed using the CI ROOT 0 -> ROOT 14 density matrix


Transition Multipole Moments:

 ------------------------------------------------------------------------------------
     Multipole            Electronic (a.u.)      Nuclear  (a.u.)        Total (a.u.)
 ------------------------------------------------------------------------------------

 L = 1.  Multiply by 2.5417464519 to convert [e a0] to [Debye]
 Dipole X            :          0.0000000            0.0000000            0.0000000
 Dipole Y            :          0.0000000            0.0000000            0.0000000
 Dipole Z            :         -0.0190426            0.0000000           -0.0190426
 Magnitude           :                                                    0.0190426

 ------------------------------------------------------------------------------------

Properties computed using the CI ROOT 0 -> ROOT 15 density matrix


Transition Multipole Moments:

 ------------------------------------------------------------------------------------
     Multipole            Electronic (a.u.)      Nuclear  (a.u.)        Total (a.u.)
 ------------------------------------------------------------------------------------

 L = 1.  Multiply by 2.5417464519 to convert [e a0] to [Debye]
 Dipole X            :          0.0000000            0.0000000            0.0000000
 Dipole Y            :          0.0000000            0.0000000            0.0000000
 Dipole Z            :          0.0007169            0.0000000            0.0007169
 Magnitude           :                                                    0.0007169

 ------------------------------------------------------------------------------------
  ## MO-basis OPDM <0| Etu |0> (Symmetry 0) ##
  Irrep: 1 Size: 4 x 4

                 1                   2                   3                   4

    1     1.98458687906453     0.02502889232539     0.01056056117677    -0.00002236108880
    2     0.02502889232539     0.00786702226341     0.00227915694487     0.00652967891323
    3     0.01056056117677     0.00227915694487     0.00110647020503     0.00129394241388
    4    -0.00002236108880     0.00652967891323     0.00129394241388     0.00643962846703



  Irrep: 2 Size: 0 x 0

	(empty)

  Irrep: 3 Size: 0 x 0

	(empty)

  Irrep: 4 Size: 0 x 0

	(empty)

  ## MO-basis OPDM <1| Etu |0> (Symmetry 0) ##
  Irrep: 1 Size: 4 x 4

                 1                   2                   3                   4

    1     0.00000000000000     0.00000000000000    -0.00000000000000    -0.00000000000000
    2    -0.00000000000000    -0.00000000000000    -0.00000000000000     0.00000000000000
    3     0.00000000000000    -0.00000000000000    -0.00000000000000     0.00000000000000
    4     0.00000000000000    -0.00000000000000     0.00000000000000     0.00000000000000



  Irrep: 2 Size: 0 x 0

	(empty)

  Irrep: 3 Size: 0 x 0

	(empty)

  Irrep: 4 Size: 0 x 0

	(empty)

  ## MO-basis OPDM <1| Etu |1> (Symmetry 0) ##
  Irrep: 1 Size: 4 x 4

                 1                   2                   3                   4

    1     0.99087708375172     0.01104272570297     0.01513627510287    -0.09278855300171
    2     0.01104272570297     0.94981508830326     0.16753082099322     0.13928009224870
    3     0.01513627510287     0.16753082099322     0.02980647351867     0.02331180782540
    4    -0.09278855300171     0.13928009224870     0.02331180782540     0.02950135442635



  Irrep: 2 Size: 0 x 0

	(empty)

  Irrep: 3 Size: 0 x 0

	(empty)

  Irrep: 4 Size: 0 x 0

	(empty)

  ## MO-basis OPDM <2| Etu |0> (Symmetry 0) ##
  Irrep: 1 Size: 4 x 4

                 1                   2                   3                   4

    1     0.04847155442502     0.06751974234849     0.02430999381470     0.04667766487385
    2    -1.35429595702674    -0.04338393303723    -0.01516855478335    -0.02131333107297
    3    -0.15054533784722    -0.00680811007857    -0.00263090866148    -0.00372140818995
    4     0.03222804443779    -0.00501256670441    -0.00258500763054    -0.00245671272631



  Irrep: 2 Size: 0 x 0

	(empty)

  Irrep: 3 Size: 0 x 0

	(empty)

  Irrep: 4 Size: 0 x 0

	(empty)

  ## MO-basis OPDM <2| Etu |1> (Symmetry 0) ##
  Irrep: 1 Size: 4 x 4

                 1                   2                   3                   4

    1    -0.00000000000000     0.00000000000000    -0.00000000000000     0.00000000000000
    2    -0.00000000000000     0.00000000000000    -0.00000000000000    -0.00000000000000
    3     0.00000000000000    -0.00000000000000    -0.00000000000000    -0.00000000000000
    4    -0.00000000000000    -0.00000000000000    -0.00000000000000    -0.00000000000000



  Irrep: 2 Size: 0 x 0

	(empty)

  Irrep: 3 Size: 0 x 0

	(empty)

  Irrep: 4 Size: 0 x 0

	(empty)

  ## MO-basis OPDM <2| Etu |2> (Symmetry 0) ##
  Irrep: 1 Size: 4 x 4

                 1                   2                   3                   4

    1     0.94655073899047    -0.32111849548559    -0.05016918865858    -0.10320753518385
    2    -0.32111849548559     1.02462287028751     0.11998339883557     0.00527570183233
    3    -0.05016918865858     0.11998339883557     0.01505401456191     0.00199655768730
    4    -0.10320753518385     0.00527570183233     0.00199655768730     0.01377237616011



  Irrep: 2 Size: 0 x 0

	(empty)

  Irrep: 3 Size: 0 x 0

	(empty)

  Irrep: 4 Size: 0 x 0

	(empty)

  ## MO-basis OPDM <3| Etu |0> (Symmetry 0) ##
  Irrep: 1 Size: 4 x 4

                 1                   2                   3                   4

    1     0.00000000000000     0.00000000000000    -0.00000000000000    -0.00000000000000
    2    -0.00000000000000     0.00000000000000     0.00000000000000    -0.00000000000000
    3     0.00000000000000    -0.00000000000000     0.00000000000000     0.00000000000000
    4    -0.00000000000000     0.00000000000000     0.00000000000000    -0.00000000000000



  Irrep: 2 Size: 0 x 0

	(empty)

  Irrep: 3 Size: 0 x 0

	(empty)

  Irrep: 4 Size: 0 x 0

	(empty)

  ## MO-basis OPDM <3| Etu |1> (Symmetry 0) ##
  Irrep: 1 Size: 4 x 4

                 1                   2                   3                   4

    1     0.00081631908919    -0.02235603036034    -0.00311159771743     0.00550891998542
    2    -0.02470864326525    -0.15466823711982    -0.02742779217881    -0.02152526704242
    3     0.12447934612005     0.95107646439179     0.16938008398647     0.12860696421242
    4     0.01799181034994    -0.08715878902950    -0.01517426565703    -0.01552816595584



  Irrep: 2 Size: 0 x 0

	(empty)

  Irrep: 3 Size: 0 x 0

	(empty)

  Irrep: 4 Size: 0 x 0

	(empty)

  ## MO-basis OPDM <3| Etu |2> (Symmetry 0) ##
  Irrep: 1 Size: 4 x 4

                 1                   2                   3                   4

    1    -0.00000000000000    -0.00000000000000     0.00000000000000     0.00000000000000
    2     0.00000000000000     0.00000000000000     0.00000000000000     0.00000000000000
    3     0.00000000000000    -0.00000000000000    -0.00000000000000    -0.00000000000000
    4     0.00000000000000     0.00000000000000     0.00000000000000     0.00000000000000



  Irrep: 2 Size: 0 x 0

	(empty)

  Irrep: 3 Size: 0 x 0

	(empty)

  Irrep: 4 Size: 0 x 0

	(empty)

  ## MO-basis OPDM <3| Etu |3> (Symmetry 0) ##
  Irrep: 1 Size: 4 x 4

                 1                   2                   3                   4

    1     0.97621250699469    -0.10733447428808    -0.02686847448376    -0.10045072207127
    2    -0.10733447428808     0.03911267366518    -0.15659716279301     0.02551108255268
    3    -0.02686847448376    -0.15659716279301     0.96552672274082    -0.08456706080307
    4    -0.10045072207127     0.02551108255268    -0.08456706080307     0.01914809659931



  Irrep: 2 Size: 0 x 0

	(empty)

  Irrep: 3 Size: 0 x 0

	(empty)

  Irrep: 4 Size: 0 x 0

	(empty)

  ## MO-basis OPDM <4| Etu |0> (Symmetry 0) ##
  Irrep: 1 Size: 4 x 4

                 1                   2                   3                   4

    1     0.01866871015271     0.01290328286711     0.01986601969217    -0.00460396743796
    2     0.17843938711162    -0.00406091460694    -0.00381060716689    -0.00240387268173
    3    -1.35635124198276    -0.03793408531935    -0.01297815076595    -0.01813317803178
    4     0.01302421517386    -0.00422908179325    -0.00337610453494    -0.00162964477982



  Irrep: 2 Size: 0 x 0

	(empty)

  Irrep: 3 Size: 0 x 0

	(empty)

  Irrep: 4 Size: 0 x 0

	(empty)

  ## MO-basis OPDM <4| Etu |1> (Symmetry 0) ##
  Irrep: 1 Size: 4 x 4

                 1                   2                   3                   4

    1    -0.00000000000000    -0.00000000000000    -0.00000000000000     0.00000000000000
    2    -0.00000000000000    -0.00000000000000     0.00000000000000    -0.00000000000000
    3     0.00000000000000     0.00000000000000     0.00000000000000     0.00000000000000
    4     0.00000000000000    -0.00000000000000    -0.00000000000000    -0.00000000000000



  Irrep: 2 Size: 0 x 0

	(empty)

  Irrep: 3 Size: 0 x 0

	(empty)

  Irrep: 4 Size: 0 x 0

	(empty)

  ## MO-basis OPDM <4| Etu |2> (Symmetry 0) ##
  Irrep: 1 Size: 4 x 4

                 1                   2                   3                   4

    1    -0.01602965787803    -0.02218615574152    -0.02771086756946    -0.00870303004174
    2    -0.04039905894473    -0.10406034043858    -0.00620250118695     0.00918827110806
    3    -0.21986842619393     0.99863165606810     0.11624728007155    -0.00694549787670
    4    -0.02455077521523     0.00227851146459     0.00429928600255     0.00384271824505



  Irrep: 2 Size: 0 x 0

	(empty)

  Irrep: 3 Size: 0 x 0

	(empty)

  Irrep: 4 Size: 0 x 0

	(empty)

  ## MO-basis OPDM <4| Etu |3> (Symmetry 0) ##
  Irrep: 1 Size: 4 x 4

                 1                   2                   3                   4

    1     0.00000000000000     0.00000000000000     0.00000000000000    -0.00000000000000
    2     0.00000000000000    -0.00000000000000    -0.00000000000000    -0.00000000000000
    3     0.00000000000000    -0.00000000000000     0.00000000000000    -0.00000000000000
    4     0.00000000000000    -0.00000000000000    -0.00000000000000     0.00000000000000



  Irrep: 2 Size: 0 x 0

	(empty)

  Irrep: 3 Size: 0 x 0

	(empty)

  Irrep: 4 Size: 0 x 0

	(empty)

  ## MO-basis OPDM <4| Etu |4> (Symmetry 0) ##
  Irrep: 1 Size: 4 x 4

                 1                   2                   3                   4

    1     0.94844748976415    -0.16576639289642    -0.03762401934373    -0.12956749316474
    2    -0.16576639289642     0.04819692102324    -0.10622474838191     0.02563306520957
    3    -0.03762401934373    -0.10622474838191     0.98454843253419     0.00189393810928
    4    -0.12956749316474     0.02563306520957     0.00189393810928     0.01880715667841



  Irrep: 2 Size: 0 x 0

	(empty)

  Irrep: 3 Size: 0 x 0

	(empty)

  Irrep: 4 Size: 0 x 0

	(empty)

  ## MO-basis OPDM <5| Etu |0> (Symmetry 0) ##
  Irrep: 1 Size: 4 x 4

                 1                   2                   3                   4

    1    -0.00000000000000    -0.00000000000000    -0.00000000000000    -0.00000000000000
    2     0.00000000000000    -0.00000000000000     0.00000000000000     0.00000000000000
    3     0.00000000000000     0.00000000000000     0.00000000000000     0.00000000000000
    4     0.00000000000000     0.00000000000000     0.00000000000000    -0.00000000000000



  Irrep: 2 Size: 0 x 0

	(empty)

  Irrep: 3 Size: 0 x 0

	(empty)

  Irrep: 4 Size: 0 x 0

	(empty)

  ## MO-basis OPDM <5| Etu |1> (Symmetry 0) ##
  Irrep: 1 Size: 4 x 4

                 1                   2                   3                   4

    1    -0.00962876617494    -0.09132815878673    -0.00733389350585    -0.01311006430878
    2     0.02050835007470     0.15100202861512     0.02604189530944     0.02060226571961
    3    -0.03109155290501    -0.05932049823240    -0.01070426943193    -0.00576151667649
    4    -0.10142813513839    -0.95165891255242    -0.17004020572529    -0.13066899300825



  Irrep: 2 Size: 0 x 0

	(empty)

  Irrep: 3 Size: 0 x 0

	(empty)

  Irrep: 4 Size: 0 x 0

	(empty)

  ## MO-basis OPDM <5| Etu |2> (Symmetry 0) ##
  Irrep: 1 Size: 4 x 4

                 1                   2                   3                   4

    1    -0.00000000000000     0.00000000000000     0.00000000000000    -0.00000000000000
    2    -0.00000000000000    -0.00000000000000    -0.00000000000000    -0.00000000000000
    3     0.00000000000000    -0.00000000000000    -0.00000000000000     0.00000000000000
    4     0.00000000000000    -0.00000000000000     0.00000000000000     0.00000000000000



  Irrep: 2 Size: 0 x 0

	(empty)

  Irrep: 3 Size: 0 x 0

	(empty)

  Irrep: 4 Size: 0 x 0

	(empty)

  ## MO-basis OPDM <5| Etu |3> (Symmetry 0) ##
  Irrep: 1 Size: 4 x 4

                 1                   2                   3                   4

    1     0.00984634276319     0.04180581626752    -0.07917246940249     0.01091870567736
    2     0.01709350870325    -0.03003925629995     0.15196616529478    -0.01600399689033
    3     0.00696305886145     0.01021979024138    -0.06266841679579     0.00433468408416
    4     0.04455022176631     0.15141971148075    -0.96486927449262     0.08286133033255



  Irrep: 2 Size: 0 x 0

	(empty)

  Irrep: 3 Size: 0 x 0

	(empty)

  Irrep: 4 Size: 0 x 0

	(empty)

  ## MO-basis OPDM <5| Etu |4> (Symmetry 0) ##
  Irrep: 1 Size: 4 x 4

                 1                   2                   3                   4

    1     0.00000000000000     0.00000000000000    -0.00000000000000     0.00000000000000
    2     0.00000000000000    -0.00000000000000     0.00000000000000    -0.00000000000000
    3     0.00000000000000    -0.00000000000000    -0.00000000000000    -0.00000000000000
    4     0.00000000000000     0.00000000000000    -0.00000000000000     0.00000000000000



  Irrep: 2 Size: 0 x 0

	(empty)

  Irrep: 3 Size: 0 x 0

	(empty)

  Irrep: 4 Size: 0 x 0

	(empty)

  ## MO-basis OPDM <5| Etu |5> (Symmetry 0) ##
  Irrep: 1 Size: 4 x 4

                 1                   2                   3                   4

    1     0.98643187795834    -0.10906774947816     0.02349166394826    -0.01757818548407
    2    -0.10906774947816     0.03394257103016    -0.01157865331104    -0.14189161519829
    3     0.02349166394826    -0.01157865331104     0.00498249636344     0.06036840528086
    4    -0.01757818548407    -0.14189161519829     0.06036840528086     0.97464305464805



  Irrep: 2 Size: 0 x 0

	(empty)

  Irrep: 3 Size: 0 x 0

	(empty)

  Irrep: 4 Size: 0 x 0

	(empty)

  ## MO-basis OPDM <6| Etu |0> (Symmetry 0) ##
  Irrep: 1 Size: 4 x 4

                 1                   2                   3                   4

    1    -0.03782870486836     0.05206130561878     0.00456261090450     0.06268151467249
    2    -0.15705104517285     0.03823952856977     0.00969092830417     0.03367040963424
    3    -0.02480345291400    -0.00620045580511    -0.00401589680540    -0.00251755960730
    4    -1.28451241790211    -0.00986533575100    -0.00422282279933     0.00360507310399



  Irrep: 2 Size: 0 x 0

	(empty)

  Irrep: 3 Size: 0 x 0

	(empty)

  Irrep: 4 Size: 0 x 0

	(empty)

  ## MO-basis OPDM <6| Etu |1> (Symmetry 0) ##
  Irrep: 1 Size: 4 x 4

                 1                   2                   3                   4

    1    -0.00000000000000    -0.00000000000000     0.00000000000000    -0.00000000000000
    2     0.00000000000000     0.00000000000000     0.00000000000000    -0.00000000000000
    3    -0.00000000000000    -0.00000000000000     0.00000000000000     0.00000000000000
    4     0.00000000000000    -0.00000000000000    -0.00000000000000    -0.00000000000000



  Irrep: 2 Size: 0 x 0

	(empty)

  Irrep: 3 Size: 0 x 0

	(empty)

  Irrep: 4 Size: 0 x 0

	(empty)

  ## MO-basis OPDM <6| Etu |2> (Symmetry 0) ##
  Irrep: 1 Size: 4 x 4

                 1                   2                   3                   4

    1     0.08262677268543    -0.10144792274738    -0.02303856182277     0.02765964354685
    2     0.48254115397343    -0.05544224815483    -0.01240221829206    -0.04893629405081
    3    -0.06282071393545     0.03732498209230     0.00799323444744     0.00775485575798
    4     0.08682792087229     0.84475406760470     0.09287396667928    -0.03517775897804



  Irrep: 2 Size: 0 x 0

	(empty)

  Irrep: 3 Size: 0 x 0

	(empty)

  Irrep: 4 Size: 0 x 0

	(empty)

  ## MO-basis OPDM <6| Etu |3> (Symmetry 0) ##
  Irrep: 1 Size: 4 x 4

                 1                   2                   3                   4

    1    -0.00000000000000     0.00000000000000     0.00000000000000     0.00000000000000
    2     0.00000000000000    -0.00000000000000     0.00000000000000    -0.00000000000000
    3     0.00000000000000    -0.00000000000000    -0.00000000000000    -0.00000000000000
    4     0.00000000000000     0.00000000000000    -0.00000000000000     0.00000000000000



  Irrep: 2 Size: 0 x 0

	(empty)

  Irrep: 3 Size: 0 x 0

	(empty)

  Irrep: 4 Size: 0 x 0

	(empty)

  ## MO-basis OPDM <6| Etu |4> (Symmetry 0) ##
  Irrep: 1 Size: 4 x 4

                 1                   2                   3                   4

    1    -0.00284445617251    -0.01945993651557    -0.11910703131368    -0.01540533014660
    2    -0.11642357548994    -0.02019133425076    -0.00583152241658    -0.00127632750864
    3    -0.10746841491179     0.01991197724926     0.03218886814168     0.01631515780785
    4    -0.02777889182100    -0.11818777598195     0.85999399452420    -0.00915307771841



  Irrep: 2 Size: 0 x 0

	(empty)

  Irrep: 3 Size: 0 x 0

	(empty)

  Irrep: 4 Size: 0 x 0

	(empty)

  ## MO-basis OPDM <6| Etu |5> (Symmetry 0) ##
  Irrep: 1 Size: 4 x 4

                 1                   2                   3                   4

    1     0.00000000000000    -0.00000000000000     0.00000000000000    -0.00000000000000
    2    -0.00000000000000    -0.00000000000000     0.00000000000000    -0.00000000000000
    3     0.00000000000000    -0.00000000000000    -0.00000000000000     0.00000000000000
    4    -0.00000000000000    -0.00000000000000    -0.00000000000000     0.00000000000000



  Irrep: 2 Size: 0 x 0

	(empty)

  Irrep: 3 Size: 0 x 0

	(empty)

  Irrep: 4 Size: 0 x 0

	(empty)

  ## MO-basis OPDM <6| Etu |6> (Symmetry 0) ##
  Irrep: 1 Size: 4 x 4

                 1                   2                   3                   4

    1     0.84027455787333     0.17724560688295    -0.00318758095676     0.00225450510417
    2     0.17724560688295     0.29528801262934    -0.01760966822789     0.15884199971910
    3    -0.00318758095676    -0.01760966822789     0.01678495986435     0.00976539438488
    4     0.00225450510417     0.15884199971910     0.00976539438488     0.84765246963297



  Irrep: 2 Size: 0 x 0

	(empty)

  Irrep: 3 Size: 0 x 0

	(empty)

  Irrep: 4 Size: 0 x 0

	(empty)

  ## MO-basis OPDM <7| Etu |0> (Symmetry 0) ##
  Irrep: 1 Size: 4 x 4

                 1                   2                   3                   4

    1     0.10230935317576     0.00623872172429    -0.00439074378012     0.01506794511705
    2     0.28919888581646    -0.09124882562860    -0.03013063689042    -0.07127872829719
    3     0.10010381316415    -0.00789219368604    -0.00168404767902    -0.00702118568341
    4    -0.54277644683069    -0.01880939886474    -0.00629167855163    -0.00937647986814



  Irrep: 2 Size: 0 x 0

	(empty)

  Irrep: 3 Size: 0 x 0

	(empty)

  Irrep: 4 Size: 0 x 0

	(empty)

  ## MO-basis OPDM <7| Etu |1> (Symmetry 0) ##
  Irrep: 1 Size: 4 x 4

                 1                   2                   3                   4

    1    -0.00000000000000    -0.00000000000000     0.00000000000000     0.00000000000000
    2    -0.00000000000000     0.00000000000000     0.00000000000000     0.00000000000000
    3    -0.00000000000000    -0.00000000000000    -0.00000000000000     0.00000000000000
    4    -0.00000000000000     0.00000000000000    -0.00000000000000    -0.00000000000000



  Irrep: 2 Size: 0 x 0

	(empty)

  Irrep: 3 Size: 0 x 0

	(empty)

  Irrep: 4 Size: 0 x 0

	(empty)

  ## MO-basis OPDM <7| Etu |2> (Symmetry 0) ##
  Irrep: 1 Size: 4 x 4

                 1                   2                   3                   4

    1    -0.19381943937686    -0.05196079719494    -0.00584536798930     0.03953627269110
    2    -1.18451335286866     0.18815618034032     0.04240487156492     0.12814260749382
    3    -0.16028333776854    -0.02243702163201    -0.00259886601037     0.01940138805938
    4    -0.17876257332216     0.42203509032809     0.04855622562826     0.00826212504691



  Irrep: 2 Size: 0 x 0

	(empty)

  Irrep: 3 Size: 0 x 0

	(empty)

  Irrep: 4 Size: 0 x 0

	(empty)

  ## MO-basis OPDM <7| Etu |3> (Symmetry 0) ##
  Irrep: 1 Size: 4 x 4

                 1                   2                   3                   4

    1     0.00000000000000    -0.00000000000000     0.00000000000000     0.00000000000000
    2     0.00000000000000    -0.00000000000000    -0.00000000000000    -0.00000000000000
    3    -0.00000000000000     0.00000000000000     0.00000000000000     0.00000000000000
    4    -0.00000000000000     0.00000000000000    -0.00000000000000     0.00000000000000



  Irrep: 2 Size: 0 x 0

	(empty)

  Irrep: 3 Size: 0 x 0

	(empty)

  Irrep: 4 Size: 0 x 0

	(empty)

  ## MO-basis OPDM <7| Etu |4> (Symmetry 0) ##
  Irrep: 1 Size: 4 x 4

                 1                   2                   3                   4

    1    -0.04522721939780     0.02214309948498    -0.08357580518613     0.00714968384740
    2    -0.01320280921444     0.09157067485682     0.06643502495938     0.04109786277243
    3     0.09119620095805     0.00090587258082    -0.04185796178744    -0.00736669897687
    4     0.03793799473461    -0.04787264564258     0.40476244005663    -0.00448549367159



  Irrep: 2 Size: 0 x 0

	(empty)

  Irrep: 3 Size: 0 x 0

	(empty)

  Irrep: 4 Size: 0 x 0

	(empty)

  ## MO-basis OPDM <7| Etu |5> (Symmetry 0) ##
  Irrep: 1 Size: 4 x 4

                 1                   2                   3                   4

    1    -0.00000000000000     0.00000000000000     0.00000000000000     0.00000000000000
    2     0.00000000000000     0.00000000000000    -0.00000000000000    -0.00000000000000
    3     0.00000000000000     0.00000000000000     0.00000000000000     0.00000000000000
    4    -0.00000000000000    -0.00000000000000    -0.00000000000000    -0.00000000000000



  Irrep: 2 Size: 0 x 0

	(empty)

  Irrep: 3 Size: 0 x 0

	(empty)

  Irrep: 4 Size: 0 x 0

	(empty)

  ## MO-basis OPDM <7| Etu |6> (Symmetry 0) ##
  Irrep: 1 Size: 4 x 4

                 1                   2                   3                   4

    1     0.32987260863118    -0.04850564517018     0.01803176788340    -0.10376652416440
    2    -0.28967923796229    -0.66000641225462     0.07862757722881    -0.32861151018038
    3     0.00300436447753    -0.09840466508979    -0.00049037031815    -0.08715679240851
    4    -0.01924931529624    -0.04905946300396     0.01305622927869     0.33062417394159



  Irrep: 2 Size: 0 x 0

	(empty)

  Irrep: 3 Size: 0 x 0

	(empty)

  Irrep: 4 Size: 0 x 0

	(empty)

  ## MO-basis OPDM <7| Etu |7> (Symmetry 0) ##
  Irrep: 1 Size: 4 x 4

                 1                   2                   3                   4

    1     0.19510474416368     0.18922442631779     0.04251270869145    -0.00197454287891
    2     0.18922442631779     1.58393127018171     0.21214364609920     0.13116877754449
    3     0.04251270869145     0.21214364609920     0.04157287784898     0.00446626392252
    4    -0.00197454287891     0.13116877754449     0.00446626392252     0.17939110780563



  Irrep: 2 Size: 0 x 0

	(empty)

  Irrep: 3 Size: 0 x 0

	(empty)

  Irrep: 4 Size: 0 x 0

	(empty)

  ## MO-basis OPDM <8| Etu |0> (Symmetry 0) ##
  Irrep: 1 Size: 4 x 4

                 1                   2                   3                   4

    1    -0.00000000000000     0.00000000000000    -0.00000000000000    -0.00000000000000
    2    -0.00000000000000     0.00000000000000    -0.00000000000000    -0.00000000000000
    3     0.00000000000000    -0.00000000000000     0.00000000000000     0.00000000000000
    4     0.00000000000000     0.00000000000000    -0.00000000000000    -0.00000000000000



  Irrep: 2 Size: 0 x 0

	(empty)

  Irrep: 3 Size: 0 x 0

	(empty)

  Irrep: 4 Size: 0 x 0

	(empty)

  ## MO-basis OPDM <8| Etu |1> (Symmetry 0) ##
  Irrep: 1 Size: 4 x 4

                 1                   2                   3                   4

    1     0.04297605061241    -0.00214333211940     0.00028749380597    -0.00335163776890
    2     0.11554591777147    -0.01837965766385     0.00113914315500    -0.00549377024947
    3    -0.92430513969681     0.09805807326762     0.00594144394806     0.10404889431998
    4     0.32565921814136    -0.00731795976454     0.00346753300279    -0.03053783689662



  Irrep: 2 Size: 0 x 0

	(empty)

  Irrep: 3 Size: 0 x 0

	(empty)

  Irrep: 4 Size: 0 x 0

	(empty)

  ## MO-basis OPDM <8| Etu |2> (Symmetry 0) ##
  Irrep: 1 Size: 4 x 4

                 1                   2                   3                   4

    1     0.00000000000000     0.00000000000000     0.00000000000000    -0.00000000000000
    2    -0.00000000000000     0.00000000000000     0.00000000000000     0.00000000000000
    3     0.00000000000000     0.00000000000000    -0.00000000000000    -0.00000000000000
    4    -0.00000000000000    -0.00000000000000    -0.00000000000000     0.00000000000000



  Irrep: 2 Size: 0 x 0

	(empty)

  Irrep: 3 Size: 0 x 0

	(empty)

  Irrep: 4 Size: 0 x 0

	(empty)

  ## MO-basis OPDM <8| Etu |3> (Symmetry 0) ##
  Irrep: 1 Size: 4 x 4

                 1                   2                   3                   4

    1     0.11642561021736    -0.01388706525568     0.00222099734437    -0.01120369386008
    2     0.91952064252281    -0.09774803625154    -0.00639144708421    -0.09183677934438
    3     0.16577804626648    -0.01123636146760    -0.00732366234696    -0.04419285030640
    4     0.17547276067855    -0.02537847079829     0.02955039501765    -0.01135391161887



  Irrep: 2 Size: 0 x 0

	(empty)

  Irrep: 3 Size: 0 x 0

	(empty)

  Irrep: 4 Size: 0 x 0

	(empty)

  ## MO-basis OPDM <8| Etu |4> (Symmetry 0) ##
  Irrep: 1 Size: 4 x 4

                 1                   2                   3                   4

[...]
    2     0.11473199516865     0.00485816682293     0.00542963065504    -0.01590625886079
    3    -0.13650896214602     0.03451569409661    -0.02055910978125     0.03933583226603
    4    -0.01956688105348     0.02241736162609    -0.01592090024080    -0.01874245834704



  Irrep: 2 Size: 0 x 0

	(empty)

  Irrep: 3 Size: 0 x 0

	(empty)

  Irrep: 4 Size: 0 x 0

	(empty)

  ## MO-basis OPDM <14| Etu |3> (Symmetry 0) ##
  Irrep: 1 Size: 4 x 4

                 1                   2                   3                   4

    1    -0.00000000000000     0.00000000000000     0.00000000000000     0.00000000000000
    2     0.00000000000000    -0.00000000000000    -0.00000000000000    -0.00000000000000
    3    -0.00000000000000     0.00000000000000    -0.00000000000000     0.00000000000000
    4    -0.00000000000000     0.00000000000000     0.00000000000000     0.00000000000000



  Irrep: 2 Size: 0 x 0

	(empty)

  Irrep: 3 Size: 0 x 0

	(empty)

  Irrep: 4 Size: 0 x 0

	(empty)

  ## MO-basis OPDM <14| Etu |4> (Symmetry 0) ##
  Irrep: 1 Size: 4 x 4

                 1                   2                   3                   4

    1     0.09258852688767    -0.01699714317886    -0.01712646835368    -0.01353503081438
    2    -0.19912030001941     0.02790443030234     0.02358102453316     0.02544395027719
    3     0.62754878529856    -0.12878289413533    -0.01292821998653    -0.09537262884822
    4     0.81765079085745    -0.13991586496699     0.01682631930520    -0.10756473720347



  Irrep: 2 Size: 0 x 0

	(empty)

  Irrep: 3 Size: 0 x 0

	(empty)

  Irrep: 4 Size: 0 x 0

	(empty)

  ## MO-basis OPDM <14| Etu |5> (Symmetry 0) ##
  Irrep: 1 Size: 4 x 4

                 1                   2                   3                   4

    1    -0.00000000000000     0.00000000000000     0.00000000000000     0.00000000000000
    2    -0.00000000000000    -0.00000000000000    -0.00000000000000     0.00000000000000
    3     0.00000000000000    -0.00000000000000     0.00000000000000    -0.00000000000000
    4     0.00000000000000     0.00000000000000     0.00000000000000    -0.00000000000000



  Irrep: 2 Size: 0 x 0

	(empty)

  Irrep: 3 Size: 0 x 0

	(empty)

  Irrep: 4 Size: 0 x 0

	(empty)

  ## MO-basis OPDM <14| Etu |6> (Symmetry 0) ##
  Irrep: 1 Size: 4 x 4

                 1                   2                   3                   4

    1    -0.00111006248033     0.00556848764822    -0.01303997942744    -0.00469112124189
    2    -0.09711413379902     0.06727568563797     0.01509043071715     0.04413669220120
    3     0.74886547603535    -0.00809082581946    -0.05950283880706     0.03594394032689
    4    -0.26141043351216    -0.14299393004225    -0.09267517455569    -0.00666278435058



  Irrep: 2 Size: 0 x 0

	(empty)

  Irrep: 3 Size: 0 x 0

	(empty)

  Irrep: 4 Size: 0 x 0

	(empty)

  ## MO-basis OPDM <14| Etu |7> (Symmetry 0) ##
  Irrep: 1 Size: 4 x 4

                 1                   2                   3                   4

    1    -0.01293705539935    -0.04408129944105     0.00322120882792    -0.00525188354164
    2    -0.06090177384453    -0.11989599913720    -0.04232411413216    -0.01707916365309
    3     0.30582296200624    -0.04020454688514     0.09123403185969     0.07485021852515
    4    -0.14701507066629     0.04934932808306     0.07292406848343     0.04159902267685



  Irrep: 2 Size: 0 x 0

	(empty)

  Irrep: 3 Size: 0 x 0

	(empty)

  Irrep: 4 Size: 0 x 0

	(empty)

  ## MO-basis OPDM <14| Etu |8> (Symmetry 0) ##
  Irrep: 1 Size: 4 x 4

                 1                   2                   3                   4

    1     0.00000000000000     0.00000000000000     0.00000000000000    -0.00000000000000
    2     0.00000000000000    -0.00000000000000    -0.00000000000000    -0.00000000000000
    3    -0.00000000000000     0.00000000000000     0.00000000000000     0.00000000000000
    4     0.00000000000000     0.00000000000000     0.00000000000000     0.00000000000000



  Irrep: 2 Size: 0 x 0

	(empty)

  Irrep: 3 Size: 0 x 0

	(empty)

  Irrep: 4 Size: 0 x 0

	(empty)

  ## MO-basis OPDM <14| Etu |9> (Symmetry 0) ##
  Irrep: 1 Size: 4 x 4

                 1                   2                   3                   4

    1    -0.01199174806328    -0.08098799330844    -0.03630714868641     0.01622379821869
    2     0.04568955320690     0.07587115329635    -0.07757449376620     0.05401842300038
    3    -0.19784262071733    -0.01073301116196     0.03068742572730     0.01853862758962
    4    -0.07707039823495    -0.80829042455571    -0.06968563082143    -0.09456683096037



  Irrep: 2 Size: 0 x 0

	(empty)

  Irrep: 3 Size: 0 x 0

	(empty)

  Irrep: 4 Size: 0 x 0

	(empty)

  ## MO-basis OPDM <14| Etu |10> (Symmetry 0) ##
  Irrep: 1 Size: 4 x 4

                 1                   2                   3                   4

    1     0.00000000000000     0.00000000000000     0.00000000000000     0.00000000000000
    2     0.00000000000000     0.00000000000000     0.00000000000000    -0.00000000000000
    3    -0.00000000000000    -0.00000000000000    -0.00000000000000    -0.00000000000000
    4     0.00000000000000     0.00000000000000    -0.00000000000000     0.00000000000000



  Irrep: 2 Size: 0 x 0

	(empty)

  Irrep: 3 Size: 0 x 0

	(empty)

  Irrep: 4 Size: 0 x 0

	(empty)

  ## MO-basis OPDM <14| Etu |11> (Symmetry 0) ##
  Irrep: 1 Size: 4 x 4

                 1                   2                   3                   4

    1    -0.01494000936319    -0.04000329492375     0.00202916937905    -0.04681274206528
    2     0.02453694497435     0.23494838076068    -0.06266710612553    -0.01308486129800
    3    -0.10869739006391    -0.99365110536467    -0.10048648877378    -0.24005340085614
    4    -0.11455238101971    -0.28573768233798     0.25561573562763    -0.11952188262371



  Irrep: 2 Size: 0 x 0

	(empty)

  Irrep: 3 Size: 0 x 0

	(empty)

  Irrep: 4 Size: 0 x 0

	(empty)

  ## MO-basis OPDM <14| Etu |12> (Symmetry 0) ##
  Irrep: 1 Size: 4 x 4

                 1                   2                   3                   4

    1     0.00106089924052    -0.00088366598616    -0.12422726332424     0.03557211120909
    2    -0.00440566662006     0.03841511613302     0.17692849848805    -0.11609229569998
    3    -0.02193916551646    -0.24538869667142    -0.42077452986394     0.30688806382978
    4     0.03016475291361     0.04872636685851    -1.13227879023372     0.38129851449040



  Irrep: 2 Size: 0 x 0

	(empty)

  Irrep: 3 Size: 0 x 0

	(empty)

  Irrep: 4 Size: 0 x 0

	(empty)

  ## MO-basis OPDM <14| Etu |13> (Symmetry 0) ##
  Irrep: 1 Size: 4 x 4

                 1                   2                   3                   4

    1     0.00000000000000     0.00000000000000    -0.00000000000000     0.00000000000000
    2    -0.00000000000000    -0.00000000000000     0.00000000000000    -0.00000000000000
    3    -0.00000000000000     0.00000000000000    -0.00000000000000    -0.00000000000000
    4     0.00000000000000     0.00000000000000    -0.00000000000000     0.00000000000000



  Irrep: 2 Size: 0 x 0

	(empty)

  Irrep: 3 Size: 0 x 0

	(empty)

  Irrep: 4 Size: 0 x 0

	(empty)

  ## MO-basis OPDM <14| Etu |14> (Symmetry 0) ##
  Irrep: 1 Size: 4 x 4

                 1                   2                   3                   4

    1     0.01046113275614    -0.01486113162850     0.05239070008239     0.08073260892106
    2    -0.01486113162850     0.06966273224341    -0.24248512312380    -0.13847846291946
    3     0.05239070008239    -0.24248512312380     1.13445260336033     0.30680366462915
    4     0.08073260892106    -0.13847846291946     0.30680366462915     0.78542353164012



  Irrep: 2 Size: 0 x 0

	(empty)

  Irrep: 3 Size: 0 x 0

	(empty)

  Irrep: 4 Size: 0 x 0

	(empty)

  ## MO-basis OPDM <15| Etu |0> (Symmetry 0) ##
  Irrep: 1 Size: 4 x 4

                 1                   2                   3                   4

    1     0.07622997270440     0.00084806774281     0.00062826535429    -0.00090441174453
    2    -0.04562874852766     0.00332562929907    -0.00107080652743     0.00754322686588
    3     0.02824991935937    -0.00709362457894    -0.00315478359350    -0.00657185178886
    4     0.05518094064738    -0.05616588637913    -0.00134610947335    -0.07640081840997



  Irrep: 2 Size: 0 x 0

	(empty)

  Irrep: 3 Size: 0 x 0

	(empty)

  Irrep: 4 Size: 0 x 0

	(empty)

  ## MO-basis OPDM <15| Etu |1> (Symmetry 0) ##
  Irrep: 1 Size: 4 x 4

                 1                   2                   3                   4

    1     0.00000000000000    -0.00000000000000     0.00000000000000     0.00000000000000
    2    -0.00000000000000     0.00000000000000     0.00000000000000     0.00000000000000
    3     0.00000000000000     0.00000000000000     0.00000000000000    -0.00000000000000
    4     0.00000000000000     0.00000000000000    -0.00000000000000    -0.00000000000000



  Irrep: 2 Size: 0 x 0

	(empty)

  Irrep: 3 Size: 0 x 0

	(empty)

  Irrep: 4 Size: 0 x 0

	(empty)

  ## MO-basis OPDM <15| Etu |2> (Symmetry 0) ##
  Irrep: 1 Size: 4 x 4

                 1                   2                   3                   4

    1     0.03357463655358    -0.05689977015503    -0.00576036516363    -0.00363555938521
    2    -0.09409663797908     0.03734680282764     0.00212869783414     0.01684222144540
    3     0.02305154091527    -0.00909644268371     0.00455721128101    -0.00545713522624
    4     0.20396134195318     0.05383583475773     0.02208131928337    -0.07547865066224



  Irrep: 2 Size: 0 x 0

	(empty)

  Irrep: 3 Size: 0 x 0

	(empty)

  Irrep: 4 Size: 0 x 0

	(empty)

  ## MO-basis OPDM <15| Etu |3> (Symmetry 0) ##
  Irrep: 1 Size: 4 x 4

                 1                   2                   3                   4

    1     0.00000000000000    -0.00000000000000     0.00000000000000    -0.00000000000000
    2    -0.00000000000000     0.00000000000000    -0.00000000000000     0.00000000000000
    3     0.00000000000000    -0.00000000000000     0.00000000000000    -0.00000000000000
    4     0.00000000000000    -0.00000000000000    -0.00000000000000    -0.00000000000000



  Irrep: 2 Size: 0 x 0

	(empty)

  Irrep: 3 Size: 0 x 0

	(empty)

  Irrep: 4 Size: 0 x 0

	(empty)

  ## MO-basis OPDM <15| Etu |4> (Symmetry 0) ##
  Irrep: 1 Size: 4 x 4

                 1                   2                   3                   4

    1    -0.02181568091811     0.00978966887973    -0.05209936846431     0.00325523430725
    2     0.04712305474049    -0.01043577503923     0.02115947048164    -0.00691406868510
    3    -0.16428018629080     0.03236010893253    -0.00057095802182     0.02399402376343
    4    -0.13661086145667     0.03731914442532     0.11700770537964     0.03282241397915



  Irrep: 2 Size: 0 x 0

	(empty)

  Irrep: 3 Size: 0 x 0

	(empty)

  Irrep: 4 Size: 0 x 0

	(empty)

  ## MO-basis OPDM <15| Etu |5> (Symmetry 0) ##
  Irrep: 1 Size: 4 x 4

                 1                   2                   3                   4

    1     0.00000000000000     0.00000000000000    -0.00000000000000     0.00000000000000
    2    -0.00000000000000     0.00000000000000     0.00000000000000    -0.00000000000000
    3     0.00000000000000     0.00000000000000    -0.00000000000000    -0.00000000000000
    4     0.00000000000000     0.00000000000000    -0.00000000000000    -0.00000000000000



  Irrep: 2 Size: 0 x 0

	(empty)

  Irrep: 3 Size: 0 x 0

	(empty)

  Irrep: 4 Size: 0 x 0

	(empty)

  ## MO-basis OPDM <15| Etu |6> (Symmetry 0) ##
  Irrep: 1 Size: 4 x 4

                 1                   2                   3                   4

    1    -0.03497166646562     0.00702367301980    -0.00060340548650    -0.04363037626904
    2     0.16766389896247    -0.02179548193931     0.00180313125654     0.01036941643032
    3    -0.11680123126278     0.00904211743054     0.01668755343806    -0.00847573950910
    4    -1.21861844959929    -0.07985620190095    -0.00131276740569     0.04007959496687



  Irrep: 2 Size: 0 x 0

	(empty)

  Irrep: 3 Size: 0 x 0

	(empty)

  Irrep: 4 Size: 0 x 0

	(empty)

  ## MO-basis OPDM <15| Etu |7> (Symmetry 0) ##
  Irrep: 1 Size: 4 x 4

                 1                   2                   3                   4

    1    -0.01675339647868    -0.02019926951240    -0.00448737758994    -0.02667982000452
    2     0.08799657367108     0.07113685430464     0.02201805413541     0.02756378221943
    3    -0.04427590681966     0.00774372757609    -0.02032069363802    -0.01647117781260
    4    -0.55061760560681     0.02345983984697    -0.07320211829042    -0.03406276418793



  Irrep: 2 Size: 0 x 0

	(empty)

  Irrep: 3 Size: 0 x 0

	(empty)

  Irrep: 4 Size: 0 x 0

	(empty)

  ## MO-basis OPDM <15| Etu |8> (Symmetry 0) ##
  Irrep: 1 Size: 4 x 4

                 1                   2                   3                   4

    1     0.00000000000000    -0.00000000000000    -0.00000000000000     0.00000000000000
    2    -0.00000000000000     0.00000000000000     0.00000000000000    -0.00000000000000
    3     0.00000000000000    -0.00000000000000    -0.00000000000000     0.00000000000000
    4     0.00000000000000    -0.00000000000000     0.00000000000000    -0.00000000000000



  Irrep: 2 Size: 0 x 0

	(empty)

  Irrep: 3 Size: 0 x 0

	(empty)

  Irrep: 4 Size: 0 x 0

	(empty)

  ## MO-basis OPDM <15| Etu |9> (Symmetry 0) ##
  Irrep: 1 Size: 4 x 4

                 1                   2                   3                   4

    1     0.00788660019743    -0.01034519227260    -0.01575397510817     0.01969612266055
    2    -0.03282577677046     0.08417877211429     0.06676759460926    -0.02897087096927
    3     0.04009378547377     0.05419946487588     0.00148446581651     0.00155847887049
    4     0.20046991019986    -0.68383995501085    -0.14920365865240    -0.09354983812822



  Irrep: 2 Size: 0 x 0

	(empty)

  Irrep: 3 Size: 0 x 0

	(empty)

  Irrep: 4 Size: 0 x 0

	(empty)

  ## MO-basis OPDM <15| Etu |10> (Symmetry 0) ##
  Irrep: 1 Size: 4 x 4

                 1                   2                   3                   4

    1     0.00000000000000    -0.00000000000000     0.00000000000000    -0.00000000000000
    2    -0.00000000000000    -0.00000000000000    -0.00000000000000     0.00000000000000
    3     0.00000000000000     0.00000000000000     0.00000000000000    -0.00000000000000
    4     0.00000000000000     0.00000000000000    -0.00000000000000    -0.00000000000000



  Irrep: 2 Size: 0 x 0

	(empty)

  Irrep: 3 Size: 0 x 0

	(empty)

  Irrep: 4 Size: 0 x 0

	(empty)

  ## MO-basis OPDM <15| Etu |11> (Symmetry 0) ##
  Irrep: 1 Size: 4 x 4

                 1                   2                   3                   4

    1     0.00550796647298     0.05274742143314     0.00066181305153    -0.00793657219407
    2    -0.00789040166376    -0.19237114502345    -0.01019440010932     0.01467593142530
    3     0.02698604409408     0.19452891923192     0.00318011017714     0.05243999006592
    4     0.03915368202340     1.09180303851740     0.31688146729152     0.18368306837333



  Irrep: 2 Size: 0 x 0

	(empty)

  Irrep: 3 Size: 0 x 0

	(empty)

  Irrep: 4 Size: 0 x 0

	(empty)

  ## MO-basis OPDM <15| Etu |12> (Symmetry 0) ##
  Irrep: 1 Size: 4 x 4

                 1                   2                   3                   4

    1     0.00205910870708     0.01402782132669     0.00512341032992    -0.01442170471738
    2    -0.00496300909989    -0.05499036280749     0.03753766538634     0.03888386175537
    3     0.00215802171313     0.04061032261735     0.14824467776042    -0.07850254193416
    4     0.04993103934275     0.36623139584283    -0.41905517349460    -0.09531342366001



  Irrep: 2 Size: 0 x 0

	(empty)

  Irrep: 3 Size: 0 x 0

	(empty)

  Irrep: 4 Size: 0 x 0

	(empty)

  ## MO-basis OPDM <15| Etu |13> (Symmetry 0) ##
  Irrep: 1 Size: 4 x 4

                 1                   2                   3                   4

    1    -0.00000000000000    -0.00000000000000     0.00000000000000     0.00000000000000
    2     0.00000000000000     0.00000000000000    -0.00000000000000     0.00000000000000
    3     0.00000000000000    -0.00000000000000     0.00000000000000     0.00000000000000
    4    -0.00000000000000    -0.00000000000000     0.00000000000000    -0.00000000000000



  Irrep: 2 Size: 0 x 0

	(empty)

  Irrep: 3 Size: 0 x 0

	(empty)

  Irrep: 4 Size: 0 x 0

	(empty)

  ## MO-basis OPDM <15| Etu |14> (Symmetry 0) ##
  Irrep: 1 Size: 4 x 4

                 1                   2                   3                   4

    1    -0.00038525192286     0.01182441107909    -0.05754743322899    -0.00815457189912
    2     0.00007547400216    -0.04286330479834     0.20627972754571    -0.01298459192994
    3    -0.01459732029975     0.05170949042789    -0.22160505664392    -0.10511482345045
    4     0.00017620792718     0.21220364865246    -1.24714919691264     0.26485361336512



  Irrep: 2 Size: 0 x 0

	(empty)

  Irrep: 3 Size: 0 x 0

	(empty)

  Irrep: 4 Size: 0 x 0

	(empty)

  ## MO-basis OPDM <15| Etu |15> (Symmetry 0) ##
  Irrep: 1 Size: 4 x 4

                 1                   2                   3                   4

    1     0.00608890434585    -0.01358261961060     0.01081326201580     0.06598003994103
    2    -0.01358261961060     0.04924726072245    -0.03571375242713    -0.28760484046250
    3     0.01081326201580    -0.03571375242713     0.04620769250504     0.20454087879044
    4     0.06598003994103    -0.28760484046250     0.20454087879044     1.89845614242666



  Irrep: 2 Size: 0 x 0

	(empty)

  Irrep: 3 Size: 0 x 0

	(empty)

  Irrep: 4 Size: 0 x 0

	(empty)

  ## AO Mux (Symmetry 0) ##
  Irrep: 1 Size: 4 x 4

                 1                   2                   3                   4

    1     0.00000000000000     0.00000000000000     0.00000000000000     0.00000000000000
    2     0.00000000000000     0.00000000000000     0.00000000000000     0.00000000000000
    3     0.00000000000000     0.00000000000000     0.00000000000000     0.00000000000000
    4     0.00000000000000     0.00000000000000     0.00000000000000     0.00000000000000



  ## AO Muy (Symmetry 0) ##
  Irrep: 1 Size: 4 x 4

                 1                   2                   3                   4

    1     0.00000000000000     0.00000000000000     0.00000000000000     0.00000000000000
    2     0.00000000000000     0.00000000000000     0.00000000000000     0.00000000000000
    3     0.00000000000000     0.00000000000000     0.00000000000000     0.00000000000000
    4     0.00000000000000     0.00000000000000     0.00000000000000     0.00000000000000



  ## AO Muz (Symmetry 0) ##
  Irrep: 1 Size: 4 x 4

                 1                   2                   3                   4

    1     1.16542374170630     0.76718918327655     0.06443851075512     0.39664974787813
    2     0.76718918327655     1.16542374170630    -0.04668651922076     0.16341148479209
    3     0.06443851075512    -0.04668651922076    -0.29344482714714    -0.18608737356031
    4     0.39664974787813     0.16341148479209    -0.18608737356031    -0.29344482714714



  ## Alpha MO coefficients (Symmetry 0) ##
  Irrep: 1 Size: 4 x 4

                 1                   2                   3                   4

    1     0.22570756296391     0.37120269232510     1.24177775992044     0.24087275501702
    2    -0.00302330231399     1.11890016562129    -1.03780148927083    -0.87562338121549
    3     0.60166135869897    -0.25667369295660     0.08732552594093    -1.17442680027379
    4     0.37028238307366    -0.79160922884337    -0.20778751681531     1.67841591295588



  Irrep: 2 Size: 0 x 0

	(empty)

  Irrep: 3 Size: 0 x 0

	(empty)

  Irrep: 4 Size: 0 x 0

	(empty)


    Psi4 stopped on: Sunday, 17 August 2025 05:46PM
    Psi4 wall time for execution: 0:00:00.31

*** Psi4 exiting successfully. Buy a developer a beer!
