************************************************************
This is node14.cluster of cluster Pinconning.
Date: Mon Jun 26 08:57:19 PDT 2023
************************************************************
 Set GAUSS_MDEF to "32GB".
 Set GAUSS_PDEF to "12".
 Entering Gaussian System, Link 0=gdv
 Initial command:
 /opt/gaussian/gdv-20180628-i14+/gdv/l1.exe "/tmp/835929.1.allnodes.q/Gau-18520.inp" -scrdir="/tmp/835929.1.allnodes.q/"
 Default is to use a total of  12 processors:
                               12 via shared-memory
                                1 via Linda
 Entering Link 1 = /opt/gaussian/gdv-20180628-i14+/gdv/l1.exe PID=     18521.
  
 Copyright (c) 1988-2018, Gaussian, Inc.  All Rights Reserved.
  
 This is the private, development version of
 the Gaussian(R) DV system of programs. It is based on
 the Gaussian(R) 16 system (copyright 2016, Gaussian, Inc.),
 the Gaussian(R) 09 system (copyright 2009, Gaussian, Inc.),
 the Gaussian(R) 03 system (copyright 2003, Gaussian, Inc.),
 the Gaussian(R) 98 system (copyright 1998, Gaussian, Inc.),
 the Gaussian(R) 94 system (copyright 1995, Gaussian, Inc.),
 the Gaussian 92(TM) system (copyright 1992, Gaussian, Inc.),
 the Gaussian 90(TM) system (copyright 1990, Gaussian, Inc.),
 the Gaussian 88(TM) system (copyright 1988, Gaussian, Inc.),
 the Gaussian 86(TM) system (copyright 1986, Carnegie Mellon
 University), and the Gaussian 82(TM) system (copyright 1983,
 Carnegie Mellon University). Gaussian is a federally registered
 trademark of Gaussian, Inc.
  
 This software contains proprietary and confidential information,
 including trade secrets, belonging to Gaussian, Inc.
  
 This software is provided under written license and may be
 used, copied, transmitted, or stored only in accord with that
 written license.
  
 The following legend is applicable only to US Government
 contracts under FAR:
  
                    RESTRICTED RIGHTS LEGEND
  
 Use, reproduction and disclosure by the US Government is
 subject to restrictions as set forth in subparagraphs (a)
 and (c) of the Commercial Computer Software - Restricted
 Rights clause in FAR 52.227-19.
  
 Gaussian, Inc.
 340 Quinnipiac St., Bldg. 40, Wallingford CT 06492
  
  
 ---------------------------------------------------------------
 Warning -- This program may not be used in any manner that
 competes with the business of Gaussian, Inc. or will provide
 assistance to any competitor of Gaussian, Inc.  The licensee
 of this program is prohibited from giving any competitor of
 Gaussian, Inc. access to this program.  By using this program,
 the user acknowledges that Gaussian, Inc. is engaged in the
 business of creating and licensing software in the field of
 computational chemistry and represents and warrants to the
 licensee that it is not a competitor of Gaussian, Inc. and that
 it will not use this program in any manner prohibited above.
 ---------------------------------------------------------------
  

 Cite this work as:
 Gaussian Development Version, Revision I.14+,
 M. J. Frisch, G. W. Trucks, H. B. Schlegel, G. E. Scuseria, 
 M. A. Robb, J. R. Cheeseman, G. Scalmani, V. Barone, 
 G. A. Petersson, H. Nakatsuji, X. Li, M. Caricato, A. V. Marenich, 
 J. Bloino, B. G. Janesko, R. Gomperts, B. Mennucci, H. P. Hratchian, 
 J. V. Ortiz, A. F. Izmaylov, J. L. Sonnenberg, D. Williams-Young, 
 F. Ding, F. Lipparini, F. Egidi, J. Goings, B. Peng, A. Petrone, 
 T. Henderson, D. Ranasinghe, V. G. Zakrzewski, J. Gao, N. Rega, 
 G. Zheng, W. Liang, M. Hada, M. Ehara, K. Toyota, R. Fukuda, 
 J. Hasegawa, M. Ishida, T. Nakajima, Y. Honda, O. Kitao, H. Nakai, 
 T. Vreven, K. Throssell, J. A. Montgomery, Jr., J. E. Peralta, 
 F. Ogliaro, M. J. Bearpark, J. J. Heyd, E. N. Brothers, K. N. Kudin, 
 V. N. Staroverov, T. A. Keith, R. Kobayashi, J. Normand, 
 K. Raghavachari, A. P. Rendell, J. C. Burant, S. S. Iyengar, 
 J. Tomasi, M. Cossi, J. M. Millam, M. Klene, C. Adamo, R. Cammi, 
 J. W. Ochterski, R. L. Martin, K. Morokuma, O. Farkas, 
 J. B. Foresman, and D. J. Fox, Gaussian, Inc., Wallingford CT, 2018.
 
 *******************************************
 Gaussian DV:  ES64L-GDVRevI.14+ 23-Jun-2018
                 26-Jun-2023 
 *******************************************
 %chk=cis-30roots_s0_h2_6-31g.chk
 ----------------------------------------------------------------------
 #p hf/6-31g CIS(NStates=30,Root=1,AllTransitionDensities,Singlets) nos
 ymm IOp(3/33=3,3/36=1,4/33=3,5/33=3,5/72=-3,6/8=1,6/33=3,8/10=90,9/33=
 3,9/40=3)
 ----------------------------------------------------------------------
 1/38=1,172=1/1;
 2/12=2,15=1,17=6,18=5,40=1/2;
 3/5=1,6=6,11=9,25=1,30=1,33=3,36=1/1,2,3,8;
 4/33=3/1;
 5/5=2,33=3,38=5,72=-3/2;
 8/6=1,10=90,107=1,108=30/1;
 9/8=1,33=3,40=3,41=30,42=1,44=3,48=1/14;
 6/7=2,8=1,9=2,10=2,33=3/1;
 99/5=1,9=1/99;
 Leave Link    1 at Mon Jun 26 08:57:19 2023, MaxMem=           0 cpu:               1.0 elap:               0.1
 (Enter /opt/gaussian/gdv-20180628-i14+/gdv/l101.exe)
 ----------------------------------------------------------------------
 CIS/6-31G, S0 state single point, no-pert. calc. (all density matrices
  printed)
 ----------------------------------------------------------------------
 Symbolic Z-matrix:
 Charge =  0 Multiplicity = 1
 H                     0.        0.       -0.37 
 H                     0.        0.        0.37 
 
 ITRead=  0  0
 MicOpt= -1 -1
 NAtoms=      2 NQM=        2 NQMF=       0 NMMI=      0 NMMIF=      0
                NMic=       0 NMicF=      0.
                    Isotopes and Nuclear Properties:
 (Nuclear quadrupole moments (NQMom) in fm**2, nuclear magnetic moments (NMagM)
  in nuclear magnetons)

  Atom         1           2
 IAtWgt=           1           1
 AtmWgt=   1.0078250   1.0078250
 NucSpn=           1           1
 AtZEff=  -0.0000000  -0.0000000
 NQMom=    0.0000000   0.0000000
 NMagM=    2.7928460   2.7928460
 AtZNuc=   1.0000000   1.0000000
 Leave Link  101 at Mon Jun 26 08:57:19 2023, MaxMem=  4294967296 cpu:               1.4 elap:               0.1
 (Enter /opt/gaussian/gdv-20180628-i14+/gdv/l202.exe)
                          Input orientation:                          
 ---------------------------------------------------------------------
 Center     Atomic      Atomic             Coordinates (Angstroms)
 Number     Number       Type             X           Y           Z
 ---------------------------------------------------------------------
      1          1           0        0.000000    0.000000   -0.370000
      2          1           0        0.000000    0.000000    0.370000
 ---------------------------------------------------------------------
 Symmetry turned off by external request.
 Stoichiometry    H2
 Framework group  D*H[C*(H.H)]
 Deg. of freedom     1
 Full point group                 D*H     NOp   8
 Rotational constants (GHZ):           0.0000000        1831.4649542        1831.4649542
 Leave Link  202 at Mon Jun 26 08:57:19 2023, MaxMem=  4294967296 cpu:               0.1 elap:               0.0
 (Enter /opt/gaussian/gdv-20180628-i14+/gdv/l301.exe)
 Standard basis: 6-31G (6D, 7F)
                         Coordinates in L301:                         
 ---------------------------------------------------------------------
 Center     Atomic      Atomic             Coordinates (Angstroms)
 Number     Number       Type             X           Y           Z
 ---------------------------------------------------------------------
      1          1           0        0.000000    0.000000   -0.370000
      2          1           0        0.000000    0.000000    0.370000
 ---------------------------------------------------------------------
 FixB: optimizing general contractions.
 Ernie: Thresh=  0.10000D-02 Tol=  0.10000D-05 Strict=F.
 IA=     1 ShT= 0 ShC= 0 NL=   2 NS=   1.
         I=   1 JX=   1 NP=   3
         I=   2 JX=   2 NP=   1
 IA=     1 L=0 SC=0 ISt=    0 NBk=    0 NP=    0 IndPr=    0.
 IA=     2 ShT= 0 ShC= 0 NL=   2 NS=   1.
         I=   1 JX=   3 NP=   3
         I=   2 JX=   4 NP=   1
 IA=     2 L=0 SC=0 ISt=    0 NBk=    0 NP=    0 IndPr=    0.
 Electric field displacement of shell     1 is  0.00D+00
 Electric field displacement of shell     2 is  0.00D+00
 Electric field displacement of shell     3 is  0.00D+00
 Electric field displacement of shell     4 is  0.00D+00
 LdAtmC:  AtmChg=     1.000000     1.000000
 AtZEff=     -1.0000000     -1.0000000
     4 basis functions,     8 primitive gaussians,     4 cartesian basis functions
     1 alpha electrons        1 beta electrons
       nuclear repulsion energy         0.7151043391 Hartrees.
 IS=     1 IAt=     1 ISR=     1 T=0 IP=      1 IndIP=      1 IndIPD=      0 C=  2.149354D-01  0.000000D+00                             NZ=T
 IS=     1 IAt=     1 ISR=     1 T=0 IP=      2 IndIP=      2 IndIPD=      1 C=  3.645712D-01  0.000000D+00                             NZ=T
 IS=     1 IAt=     1 ISR=     1 T=0 IP=      3 IndIP=      3 IndIPD=      2 C=  4.150514D-01  0.000000D+00                             NZ=T
 IS=     2 IAt=     1 ISR=     2 T=0 IP=      1 IndIP=      4 IndIPD=      0 C=  1.813806D-01  0.000000D+00                             NZ=T
 IS=     3 IAt=     2 ISR=     1 T=0 IP=      1 IndIP=      5 IndIPD=      0 C=  2.149354D-01  0.000000D+00                             NZ=T
 IS=     3 IAt=     2 ISR=     1 T=0 IP=      2 IndIP=      6 IndIPD=      1 C=  3.645712D-01  0.000000D+00                             NZ=T
 IS=     3 IAt=     2 ISR=     1 T=0 IP=      3 IndIP=      7 IndIPD=      2 C=  4.150514D-01  0.000000D+00                             NZ=T
 IS=     4 IAt=     2 ISR=     2 T=0 IP=      1 IndIP=      8 IndIPD=      0 C=  1.813806D-01  0.000000D+00                             NZ=T
 IExCor=    0 DFT=F Ex=HF Corr=None ExCW=0 ScaHFX=  1.000000
 ScaDFX=  1.000000  1.000000  1.000000  1.000000
 IRadAn=      5 IRanWt=     -1 IRanGd=            0 ICorTp=0 IEmpDi=  4
 NAtoms=    2 NActive=    2 NUniq=    2 SFac= 1.00D+00 NAtFMM=   60 NAOKFM=F Big=F
 Integral buffers will be    131072 words long.
 Raffenetti 1 integral format.
 Two-electron integral symmetry is turned off.
 Pair potential:
 Leave Link  301 at Mon Jun 26 08:57:19 2023, MaxMem=  4294967296 cpu:               0.7 elap:               0.1
 (Enter /opt/gaussian/gdv-20180628-i14+/gdv/l302.exe)
 GetPMM: IRwPM=  824 LRwPM=    0 LPMAll=    2
 GetPCM: File not found, return IValue=0.
 NPDir=0 NMtPBC=     1 NCelOv=     1 NCel=       1 NClECP=     1 NCelD=      1
         NCelK=      1 NCelE2=     1 NClLst=     1 CellRange=     0.0.
 One-electron integrals computed using PRISM.
 Entering OneElI...
 OneElI was handed  4294967235 working-precision words.
 Calculate overlap and kinetic energy integrals
    NBasis =   4  MinDer = 0  MaxDer = 0
 Requested accuracy = 0.1000D-12
 ShPair: Thresh= 1.00D-13 NBox=     0 BxSize= 0.00D+00 RnKept= 1.40D+00
         NSMCal=                   10 NSMKep=                  10
 PrmmSu-InSpLW:  IPartL=    0 NPrtUS=   12 NPrtUL=    1 DoSpLW=F IThBeg=    0 IThEnd=   11 NThAct=   12.
 PrSmSu:  IncTry=   512 NBBP=             10 NTPThr=   100 NPartT=   12 Incr=           1 LDynOK=F GPUOK=F.
 PrsmSu:  NPrtUS=  12 ThrOK=T IAlg=1 LenDen=           0 ISkipM=0 DoSpLW=F IThBeg=    0 IThEnd=   11.
 Prism:   IPart=     0 DynPar=F LinDyn=F Incr=           1.
 PRISM was handed   357912973 working-precision words and    10 shell-pairs
 PRISM was handed   357912973 working-precision words and    10 shell-pairs
 PRISM was handed   357912973 working-precision words and    10 shell-pairs
 PRISM was handed   357912973 working-precision words and    10 shell-pairs
 PRISM was handed   357912973 working-precision words and    10 shell-pairs
 PRISM was handed   357912973 working-precision words and    10 shell-pairs
 PRISM was handed   357912973 working-precision words and    10 shell-pairs
 PRISM was handed   357912973 working-precision words and    10 shell-pairs
 PRISM was handed   357912973 working-precision words and    10 shell-pairs
 PRISM was handed   357912973 working-precision words and    10 shell-pairs
 PRISM was handed   357912973 working-precision words and    10 shell-pairs
 PRISM was handed   357912973 working-precision words and    10 shell-pairs
 IPart=  5 NShTot=           0 NBatch=           0 AvBLen=         0.0
 PrsmSu-ThDecC:  IPartSL=    5    0 NPrtUSL=   12    1 IThBeg=    0 IThEnd=   11 CPU=   -1 GPU=   -1 NThAct=   12.
 IPart=  9 NShTot=           0 NBatch=           0 AvBLen=         0.0
 IPart= 10 NShTot=           0 NBatch=           0 AvBLen=         0.0
 IPart=  8 NShTot=           0 NBatch=           0 AvBLen=         0.0
 PrsmSu-ThDecC:  IPartSL=    9    0 NPrtUSL=   12    1 IThBeg=    0 IThEnd=   11 CPU=   -1 GPU=   -1 NThAct=   11.
 IPart=  6 NShTot=           0 NBatch=           0 AvBLen=         0.0
 PrsmSu-ThDecC:  IPartSL=    8    0 NPrtUSL=   12    1 IThBeg=    0 IThEnd=   11 CPU=   -1 GPU=   -1 NThAct=   10.
 PrsmSu-ThDecC:  IPartSL=   10    0 NPrtUSL=   12    1 IThBeg=    0 IThEnd=   11 CPU=   -1 GPU=   -1 NThAct=    9.
 PrsmSu-ThDecC:  IPartSL=    6    0 NPrtUSL=   12    1 IThBeg=    0 IThEnd=   11 CPU=   -1 GPU=   -1 NThAct=    8.
 IPart= 11 NShTot=           0 NBatch=           0 AvBLen=         0.0
 PrsmSu-ThDecC:  IPartSL=   11    0 NPrtUSL=   12    1 IThBeg=    0 IThEnd=   11 CPU=   -1 GPU=   -1 NThAct=    7.
 IPart=  4 NShTot=           0 NBatch=           0 AvBLen=         0.0
 PrsmSu-ThDecC:  IPartSL=    4    0 NPrtUSL=   12    1 IThBeg=    0 IThEnd=   11 CPU=   -1 GPU=   -1 NThAct=    6.
 IPart=  7 NShTot=           0 NBatch=           0 AvBLen=         0.0
 PrsmSu-ThDecC:  IPartSL=    7    0 NPrtUSL=   12    1 IThBeg=    0 IThEnd=   11 CPU=   -1 GPU=   -1 NThAct=    5.
 IPart=  3 NShTot=           1 NBatch=           1 AvBLen=         1.0
 PrsmSu-ThDecC:  IPartSL=    3    0 NPrtUSL=   12    1 IThBeg=    0 IThEnd=   11 CPU=   -1 GPU=   -1 NThAct=    4.
 IPart=  1 NShTot=           3 NBatch=           3 AvBLen=         1.0
 PrsmSu-ThDecC:  IPartSL=    1    0 NPrtUSL=   12    1 IThBeg=    0 IThEnd=   11 CPU=   -1 GPU=   -1 NThAct=    3.
 IPart=  2 NShTot=           3 NBatch=           3 AvBLen=         1.0
 PrsmSu-ThDecC:  IPartSL=    2    0 NPrtUSL=   12    1 IThBeg=    0 IThEnd=   11 CPU=   -1 GPU=   -1 NThAct=    2.
 IPart=  0 NShTot=           3 NBatch=           3 AvBLen=         1.0
 PrsmSu-ThDecC:  IPartSL=    0    0 NPrtUSL=   12    1 IThBeg=    0 IThEnd=   11 CPU=   -1 GPU=   -1 NThAct=    1.
 PrSmSu:  NxtVal=             13.
 *** Overlap *** 
                1             2             3             4 
      1  0.100000D+01
      2  0.658292D+00  0.100000D+01
      3  0.455299D+00  0.509062D+00  0.100000D+01
      4  0.509062D+00  0.854114D+00  0.658292D+00  0.100000D+01
 *** Kinetic Energy *** 
                1             2             3             4 
      1  0.139568D+01
      2  0.259735D+00  0.241917D+00
      3  0.232940D+00  0.166194D+00  0.139568D+01
      4  0.166194D+00  0.184903D+00  0.259735D+00  0.241917D+00
 Entering OneElI...
 OneElI was handed  4294967235 working-precision words.
 Calculate potential energy integrals
    NBasis =   4  MinDer = 0  MaxDer = 0
 Requested accuracy = 0.1000D-12
 ShPair: Thresh= 1.00D-13 NBox=     0 BxSize= 0.00D+00 RnKept= 1.40D+00
         NSMCal=                   10 NSMKep=                  10
 PrmmSu-InSpLW:  IPartL=    0 NPrtUS=   12 NPrtUL=    1 DoSpLW=F IThBeg=    0 IThEnd=   11 NThAct=   12.
 PrSmSu:  IncTry=   512 NBBP=             20 NTPThr=   100 NPartT=   12 Incr=           1 LDynOK=F GPUOK=F.
 PrsmSu:  NPrtUS=  12 ThrOK=T IAlg=1 LenDen=           0 ISkipM=0 DoSpLW=F IThBeg=    0 IThEnd=   11.
 Prism:   IPart=     0 DynPar=F LinDyn=F Incr=           1.
 PRISM was handed   357912968 working-precision words and    10 shell-pairs
 PRISM was handed   357912968 working-precision words and    10 shell-pairs
 PRISM was handed   357912968 working-precision words and    10 shell-pairs
 PRISM was handed   357912968 working-precision words and    10 shell-pairs
 PRISM was handed   357912968 working-precision words and    10 shell-pairs
 PRISM was handed   357912968 working-precision words and    10 shell-pairs
 PRISM was handed   357912968 working-precision words and    10 shell-pairs
 PRISM was handed   357912968 working-precision words and    10 shell-pairs
 PRISM was handed   357912968 working-precision words and    10 shell-pairs
 PRISM was handed   357912968 working-precision words and    10 shell-pairs
 PRISM was handed   357912968 working-precision words and    10 shell-pairs
 PRISM was handed   357912968 working-precision words and    10 shell-pairs
 IPart=  4 NShTot=           0 NBatch=           0 AvBLen=         0.0
 IPart=  7 NShTot=           0 NBatch=           0 AvBLen=         0.0
 IPart= 10 NShTot=           0 NBatch=           0 AvBLen=         0.0
 IPart=  3 NShTot=           2 NBatch=           1 AvBLen=         2.0
 IPart=  0 NShTot=           6 NBatch=           3 AvBLen=         2.0
 PrsmSu-ThDecC:  IPartSL=    4    0 NPrtUSL=   12    1 IThBeg=    0 IThEnd=   11 CPU=   -1 GPU=   -1 NThAct=   12.
 PrsmSu-ThDecC:  IPartSL=    0    0 NPrtUSL=   12    1 IThBeg=    0 IThEnd=   11 CPU=   -1 GPU=   -1 NThAct=   11.
 IPart=  2 NShTot=           6 NBatch=           3 AvBLen=         2.0
 PrsmSu-ThDecC:  IPartSL=    3    0 NPrtUSL=   12    1 IThBeg=    0 IThEnd=   11 CPU=   -1 GPU=   -1 NThAct=   10.
 PrsmSu-ThDecC:  IPartSL=    2    0 NPrtUSL=   12    1 IThBeg=    0 IThEnd=   11 CPU=   -1 GPU=   -1 NThAct=    9.
 PrsmSu-ThDecC:  IPartSL=    7    0 NPrtUSL=   12    1 IThBeg=    0 IThEnd=   11 CPU=   -1 GPU=   -1 NThAct=    8.
 PrsmSu-ThDecC:  IPartSL=   10    0 NPrtUSL=   12    1 IThBeg=    0 IThEnd=   11 CPU=   -1 GPU=   -1 NThAct=    7.
 IPart=  6 NShTot=           0 NBatch=           0 AvBLen=         0.0
 PrsmSu-ThDecC:  IPartSL=    6    0 NPrtUSL=   12    1 IThBeg=    0 IThEnd=   11 CPU=   -1 GPU=   -1 NThAct=    6.
 IPart=  8 NShTot=           0 NBatch=           0 AvBLen=         0.0
 PrsmSu-ThDecC:  IPartSL=    8    0 NPrtUSL=   12    1 IThBeg=    0 IThEnd=   11 CPU=   -1 GPU=   -1 NThAct=    5.
 IPart=  5 NShTot=           0 NBatch=           0 AvBLen=         0.0
 PrsmSu-ThDecC:  IPartSL=    5    0 NPrtUSL=   12    1 IThBeg=    0 IThEnd=   11 CPU=   -1 GPU=   -1 NThAct=    4.
 IPart=  9 NShTot=           0 NBatch=           0 AvBLen=         0.0
 PrsmSu-ThDecC:  IPartSL=    9    0 NPrtUSL=   12    1 IThBeg=    0 IThEnd=   11 CPU=   -1 GPU=   -1 NThAct=    3.
 IPart= 11 NShTot=           0 NBatch=           0 AvBLen=         0.0
 PrsmSu-ThDecC:  IPartSL=   11    0 NPrtUSL=   12    1 IThBeg=    0 IThEnd=   11 CPU=   -1 GPU=   -1 NThAct=    2.
 IPart=  1 NShTot=           6 NBatch=           3 AvBLen=         2.0
 PrsmSu-ThDecC:  IPartSL=    1    0 NPrtUSL=   12    1 IThBeg=    0 IThEnd=   11 CPU=   -1 GPU=   -1 NThAct=    1.
 PrSmSu:  NxtVal=             13.
 ***** Potential Energy ***** 
                1             2             3             4 
      1  0.235634D+01
      2  0.118099D+01  0.116905D+01
      3  0.104191D+01  0.945404D+00  0.235634D+01
      4  0.945404D+00  0.103980D+01  0.118099D+01  0.116905D+01
 ****** Core Hamiltonian ****** 
                1             2             3             4 
      1 -0.960659D+00
      2 -0.921259D+00 -0.927137D+00
      3 -0.808972D+00 -0.779210D+00 -0.960659D+00
      4 -0.779210D+00 -0.854898D+00 -0.921259D+00 -0.927137D+00
 SSO for IR=          1
                 1             2             3             4 
      1   0.100000D+01  0.658292D+00  0.455299D+00  0.509062D+00
      2   0.658292D+00  0.100000D+01  0.509062D+00  0.854114D+00
      3   0.455299D+00  0.509062D+00  0.100000D+01  0.658292D+00
      4   0.509062D+00  0.854114D+00  0.658292D+00  0.100000D+01
 SVDSVc IOpt=   1 NormSV=T IR=1
 SVDSVc V= 2.84D+00 5.94D-01 4.70D-01 9.62D-02
 V for IR=          1
                 1             2             3             4 
      1   0.455966D+00  0.670937D+00  0.540458D+00 -0.223257D+00
      2   0.540458D+00  0.223257D+00 -0.455966D+00  0.670937D+00
      3   0.455966D+00 -0.670937D+00  0.540458D+00  0.223257D+00
      4   0.540458D+00 -0.223257D+00 -0.455966D+00 -0.670937D+00
 Vt*S*V: 
                1             2             3             4 
      1  0.100000D+01
      2  0.000000D+00  0.100000D+01
      3  0.000000D+00  0.000000D+00  0.100000D+01
      4  0.000000D+00  0.000000D+00  0.000000D+00  0.100000D+01
 TstOVc:  Largest diagonal error= 1.33D-15 IB=1 I=    4.
 TstOVc:  Largest same sym error= 4.44D-16 IB=1 I=    4 J=    2.
 Orthogonalized basis functions: 
                 1             2             3             4 
      1   0.270615D+00  0.870278D+00  0.787967D+00 -0.719700D+00
      2   0.320761D+00  0.289588D+00 -0.664780D+00  0.216286D+01
      3   0.270615D+00 -0.870278D+00  0.787967D+00  0.719700D+00
      4   0.320761D+00 -0.289588D+00 -0.664780D+00 -0.216286D+01
 NBasis=     4 RedAO= T EigKep=  9.62D-02  NBF=     4
 NBsUse=     4 1.00D-06 EigRej= -1.00D+00 NBFU=     4
 Leave Link  302 at Mon Jun 26 08:57:19 2023, MaxMem=  4294967296 cpu:               0.7 elap:               0.1
 (Enter /opt/gaussian/gdv-20180628-i14+/gdv/l303.exe)
 GetPCM: File not found, return IValue=0.
 DipDrv:  MaxL=1.
 MemDpI: Int=      800000 Cav=           0 CFW=           0 Tot=      800000
 DipPsm:  J= 1 NJ= 4 MaxL=1 MMat= 4 MaxMat= 4.
 DipInt: DoE/N= T F RetVal/Mat= F T Init=T NMatP=  4 IDeriv=0 Min/MaxMlt=  0  1
 Entering OneElI...
 OneElI was handed  4294967255 working-precision words.
 Multipole integrals L=0 to 1 MinM= 0 MaxM= 3.
 Requested accuracy = 0.1000D-12
 ShPair: Thresh= 1.00D-13 NBox=     0 BxSize= 0.00D+00 RnKept= 1.40D+00
         NSMCal=                   10 NSMKep=                  10
 PrmmSu-InSpLW:  IPartL=    0 NPrtUS=    1 NPrtUL=    1 DoSpLW=F IThBeg=    0 IThEnd=    0 NThAct=    1.
 PrSmSu:  IncTry=   512 NBBP=             10 NTPThr=   100 NPartT=    1 Incr=           1 LDynOK=F GPUOK=F.
 PrsmSu:  NPrtUS=   1 ThrOK=F IAlg=2 LenDen=           0 ISkipM=0 DoSpLW=F IThBeg=    0 IThEnd=    0.
 Prism:   IPart=     0 DynPar=F LinDyn=F Incr=           1.
 PRISM was handed  4294965765 working-precision words and    10 shell-pairs
 IPart=  0 NShTot=          10 NBatch=           3 AvBLen=         3.3
 PrsmSu-ThDecC:  IPartSL=    0    0 NPrtUSL=    1    1 IThBeg=    0 IThEnd=    0 CPU=   -1 GPU=   -1 NThAct=    1.
 PrSmSu:  NxtVal=              2.
 Multipole matrices IBuc=  518 IX=    1 IJ=           1:
                1             2             3             4 
      1  0.000000D+00
      2  0.000000D+00  0.000000D+00
      3  0.000000D+00  0.000000D+00  0.000000D+00
      4  0.000000D+00  0.000000D+00  0.000000D+00  0.000000D+00
 Multipole matrices IBuc=  518 IX=    2 IJ=           1:
                1             2             3             4 
      1  0.000000D+00
      2  0.000000D+00  0.000000D+00
      3  0.000000D+00  0.000000D+00  0.000000D+00
      4  0.000000D+00  0.000000D+00  0.000000D+00  0.000000D+00
 Multipole matrices IBuc=  518 IX=    3 IJ=           1:
                1             2             3             4 
      1 -0.699199D+00
      2 -0.460277D+00 -0.699199D+00
      3  0.000000D+00  0.224096D+00  0.699199D+00
      4 -0.224096D+00  0.000000D+00  0.460277D+00  0.699199D+00
 ReDoC1: IPurDI=1 IPurFI=1 IPurDO=1 IPurFO=0.
 Fermi contact integrals: 
                 1             2 
      1   0.994558D+00  0.120157D+00
      2   0.181381D+00  0.132319D+00
      3   0.120157D+00  0.994558D+00
      4   0.132319D+00  0.181381D+00
 Leave Link  303 at Mon Jun 26 08:57:19 2023, MaxMem=  4294967296 cpu:               0.3 elap:               0.0
 (Enter /opt/gaussian/gdv-20180628-i14+/gdv/l308.exe)
 Dipole velocity integrals will be written to rwf   572.
 Entering OneElI...
 OneElI was handed  4294967176 working-precision words.
 Calculate R x Del and Del integrals.
    NBasis =     4  MinDer = 0  MaxDer = 0
 Requested accuracy = 0.1000D-12
 ShPair: Thresh= 1.00D-13 NBox=     0 BxSize= 0.00D+00 RnKept= 1.40D+00
         NSMCal=                   10 NSMKep=                  10
 PrmmSu-InSpLW:  IPartL=    0 NPrtUS=    1 NPrtUL=    1 DoSpLW=F IThBeg=    0 IThEnd=    0 NThAct=    1.
 PrSmSu:  IncTry=   512 NBBP=             10 NTPThr=   100 NPartT=    1 Incr=           1 LDynOK=F GPUOK=F.
 PrsmSu:  NPrtUS=   1 ThrOK=F IAlg=2 LenDen=           0 ISkipM=0 DoSpLW=F IThBeg=    0 IThEnd=    0.
 Prism:   IPart=     0 DynPar=F LinDyn=F Incr=           1.
 PRISM was handed  4294965688 working-precision words and    10 shell-pairs
 IPart=  0 NShTot=          10 NBatch=           3 AvBLen=         3.3
 PrsmSu-ThDecC:  IPartSL=    0    0 NPrtUSL=    1    1 IThBeg=    0 IThEnd=    0 CPU=   -1 GPU=   -1 NThAct=    1.
 PrSmSu:  NxtVal=              2.
 Dipole Velocity for IMat=    1:
                1             2             3             4 
      1  0.000000D+00
      2  0.000000D+00  0.000000D+00
      3  0.000000D+00  0.000000D+00  0.000000D+00
      4  0.000000D+00  0.000000D+00  0.000000D+00  0.000000D+00
 Dipole Velocity for IMat=    2:
                1             2             3             4 
      1  0.000000D+00
      2  0.000000D+00  0.000000D+00
      3  0.000000D+00  0.000000D+00  0.000000D+00
      4  0.000000D+00  0.000000D+00  0.000000D+00  0.000000D+00
 Dipole Velocity for IMat=    3:
                1             2             3             4 
      1  0.000000D+00
      2  0.000000D+00  0.000000D+00
      3 -0.474657D+00 -0.187092D+00  0.000000D+00
      4 -0.187092D+00 -0.192629D+00  0.000000D+00  0.000000D+00
 R x Del for IMat=    1:
                1             2             3             4 
      1  0.000000D+00
      2  0.000000D+00  0.000000D+00
      3  0.000000D+00  0.000000D+00  0.000000D+00
      4  0.000000D+00  0.000000D+00  0.000000D+00  0.000000D+00
 R x Del for IMat=    2:
                1             2             3             4 
      1  0.000000D+00
      2  0.000000D+00  0.000000D+00
      3  0.000000D+00  0.000000D+00  0.000000D+00
      4  0.000000D+00  0.000000D+00  0.000000D+00  0.000000D+00
 R x Del for IMat=    3:
                1             2             3             4 
      1  0.000000D+00
      2  0.000000D+00  0.000000D+00
      3  0.000000D+00  0.000000D+00  0.000000D+00
      4  0.000000D+00  0.000000D+00  0.000000D+00  0.000000D+00
< mu | del r + r del | nu > integrals: XX
                1             2             3             4 
      1  0.000000D+00
      2 -0.415363D+00  0.000000D+00
      3  0.000000D+00  0.320503D+00  0.000000D+00
      4 -0.320503D+00  0.000000D+00 -0.415363D+00  0.000000D+00
< mu | del r + r del | nu > integrals: YY
                1             2             3             4 
      1  0.000000D+00
      2 -0.415363D+00  0.000000D+00
      3  0.000000D+00  0.320503D+00  0.000000D+00
      4 -0.320503D+00  0.000000D+00 -0.415363D+00  0.000000D+00
< mu | del r + r del | nu > integrals: ZZ
                1             2             3             4 
      1  0.000000D+00
      2 -0.415363D+00  0.000000D+00
      3  0.000000D+00  0.154409D+00  0.000000D+00
      4 -0.154409D+00  0.000000D+00 -0.415363D+00  0.000000D+00
< mu | del r + r del | nu > integrals: XY
                1             2             3             4 
      1  0.000000D+00
      2  0.000000D+00  0.000000D+00
      3  0.000000D+00  0.000000D+00  0.000000D+00
      4  0.000000D+00  0.000000D+00  0.000000D+00  0.000000D+00
< mu | del r + r del | nu > integrals: XZ
                1             2             3             4 
      1  0.000000D+00
      2  0.000000D+00  0.000000D+00
      3  0.000000D+00  0.000000D+00  0.000000D+00
      4  0.000000D+00  0.000000D+00  0.000000D+00  0.000000D+00
< mu | del r + r del | nu > integrals: YZ
                1             2             3             4 
      1  0.000000D+00
      2  0.000000D+00  0.000000D+00
      3  0.000000D+00  0.000000D+00  0.000000D+00
      4  0.000000D+00  0.000000D+00  0.000000D+00  0.000000D+00
 Leave Link  308 at Mon Jun 26 08:57:19 2023, MaxMem=  4294967296 cpu:               0.3 elap:               0.0
 (Enter /opt/gaussian/gdv-20180628-i14+/gdv/l401.exe)
 Initial guess wavefunction:
 SetAtRh:  ITypeU=  14 NETotI=       2 ICharg=  0 NETot=       2.
 StAtR1:  I=    1 I1=    1 IA=  1 C=   1.0 OKShel=T
                                                  S
                                                  1
 StAtR1:  I=    2 I1=    2 IA=  1 C=   1.0 OKShel=T
                                                  S
                                                  1
          I=    1 IA=  1 I1=    1 NAtG=10 NE=   1.000 C=   1.000 Err=-1.35D-12
          I=    2 IA=  1 I1=    2 NAtG=10 NE=   1.000 C=   1.000 Err=-1.35D-12
 ShPair: Thresh= 1.00D-12 NBox=     0 BxSize= 0.00D+00 RnKept= 1.40D+00
         NSMCal=                   10 NSMKep=                  10
 ReadGW:  IGet=1 IStart=           1 Next=           1 LGW=           0.
 ExpMin= 1.61D-01 ExpMax= 1.87D+01 ExpMxC= 1.87D+01 IAcc=3 IRadAn=         5 AccDes= 0.00D+00
 Harris functional with IExCor=  205 and IRadAn=       5 diagonalized for initial guess.
 HarFok:  IExCor=  205 AccDes= 0.00D+00 IRadAn=         5 IDoV= 1 UseB2=F ITyADJ=14
 ICtDFT=  3500011 ScaDFX=  1.000000  1.000000  1.000000  1.000000
 Pruned (  99, 590) grid will be used in numerical quadrature.
 CkSvGd:  ISavGI=        -1 IRadAn=       5 IRASav=       0 ISavGd=        -1.
 SetAtRh:  ITypeU=  13 NETotI=       2 ICharg=  0 NETot=       2.
 StAtR1:  I=    1 I1=    1 IA=  1 C=   1.0 OKShel=T
                                                  S
                                                  1
 StAtR1:  I=    2 I1=    2 IA=  1 C=   1.0 OKShel=T
                                                  S
                                                  1
          I=    1 IA=  1 I1=    1 NAtG= 9 NE=   1.000 C=   1.000 Err=-2.15D-12
          I=    2 IA=  1 I1=    2 NAtG= 9 NE=   1.000 C=   1.000 Err=-2.15D-12
 CalDSu-InSpLW:  IPartL=    0 NPrtUS=   12 NPrtUL=    1 DoSpLW=F IThBeg=    0 IThEnd=   11 NThAct=   12.
 CalDSu:  NPrtUS=  12 ThrOK=T IAlg=2 DoDPD=F LenP=          10 LenD1P=             0 GPUOK=F
          ISkipM=0 DoSpLW=F IThBeg=    0 IThEnd=   11.
 IPart=  0 IRanGd=          0 ScrnBf=T ScrnGd=T RCrit=4.00D+00 DoMicB=T.
 CutRad = 1000.00    CtRdIn =    0.00    XCrit =  15.00   ICut = 0
 IPart=  4 IRanGd=          0 ScrnBf=T ScrnGd=T RCrit=4.00D+00 DoMicB=T.
 CutRad = 1000.00    CtRdIn =    0.00    XCrit =  15.00   ICut = 0
 IPart=  9 IRanGd=          0 ScrnBf=T ScrnGd=T RCrit=4.00D+00 DoMicB=T.
 CutRad = 1000.00    CtRdIn =    0.00    XCrit =  15.00   ICut = 0
 IPart=  2 IRanGd=          0 ScrnBf=T ScrnGd=T RCrit=4.00D+00 DoMicB=T.
 Pruned (  99, 590) grid will be used in numerical quadrature.
 Pruned (  99, 590) grid will be used in numerical quadrature.
 CutRad = 1000.00    CtRdIn =    0.00    XCrit =  15.00   ICut = 0
 Pruned (  99, 590) grid will be used in numerical quadrature.
 IPart= 10 IRanGd=          0 ScrnBf=T ScrnGd=T RCrit=4.00D+00 DoMicB=T.
 CutRad = 1000.00    CtRdIn =    0.00    XCrit =  15.00   ICut = 0
 IPart=  9 Atom number   1 atomic number  1 has       21352 grid points.
 Pruned (  99, 590) grid will be used in numerical quadrature.
 IPart=  2 Atom number   1 atomic number  1 has       21352 grid points.
 Pruned (  99, 590) grid will be used in numerical quadrature.
 IPart= 10 Atom number   1 atomic number  1 has       21352 grid points.
 IPart=  4 Atom number   1 atomic number  1 has       21352 grid points.
 IPart=  0 Atom number   1 atomic number  1 has       21352 grid points.
 At   1 B   2: 100.0% Sh 100.0 % Bf    1 runs, min    4 max    4 av    4.0
 IPart=  4 Atom   1 batch    2 overlaps    2 atoms,     4 shells and     2 DB shells.   NGrid=      1552
 IPart=  1 IRanGd=          0 ScrnBf=T ScrnGd=T RCrit=4.00D+00 DoMicB=T.
 IPart=  5 IRanGd=          0 ScrnBf=T ScrnGd=T RCrit=4.00D+00 DoMicB=T.
 IPart=  6 IRanGd=          0 ScrnBf=T ScrnGd=T RCrit=4.00D+00 DoMicB=T.
 CutRad = 1000.00    CtRdIn =    0.00    XCrit =  15.00   ICut = 0
 CutRad = 1000.00    CtRdIn =    0.00    XCrit =  15.00   ICut = 0
 IPart=  3 IRanGd=          0 ScrnBf=T ScrnGd=T RCrit=4.00D+00 DoMicB=T.
 Pruned (  99, 590) grid will be used in numerical quadrature.
 IPart=  8 IRanGd=          0 ScrnBf=T ScrnGd=T RCrit=4.00D+00 DoMicB=T.
 IPart=  6 Atom number   1 atomic number  1 has       21352 grid points.
 CutRad = 1000.00    CtRdIn =    0.00    XCrit =  15.00   ICut = 0
 IPart= 11 IRanGd=          0 ScrnBf=T ScrnGd=T RCrit=4.00D+00 DoMicB=T.
 Symmetry reduced   194 angular points to   194 for atom    1.
 CutRad = 1000.00    CtRdIn =    0.00    XCrit =  15.00   ICut = 0
 At   1 B   1: 100.0% Sh 100.0 % Bf    1 runs, min    4 max    4 av    4.0
 IPart=  9 Atom   1 batch    1 overlaps    2 atoms,     4 shells and     2 DB shells.   NGrid=      2838
 At   1 B   3: 100.0% Sh 100.0 % Bf    1 runs, min    4 max    4 av    4.0
 IPart=  0 Atom   1 batch    3 overlaps    2 atoms,     4 shells and     2 DB shells.   NGrid=      2416
 Symmetry reduced    86 angular points to    86 for atom    1.
 Pruned (  99, 590) grid will be used in numerical quadrature.
 CutRad = 1000.00    CtRdIn =    0.00    XCrit =  15.00   ICut = 0
 At   1 B   4: 100.0% Sh 100.0 % Bf    1 runs, min    4 max    4 av    4.0
 IPart=  2 Atom   1 batch    4 overlaps    2 atoms,     4 shells and     2 DB shells.   NGrid=      1180
 IPart=  1 Atom number   1 atomic number  1 has       21352 grid points.
 Symmetry reduced   302 angular points to   302 for atom    1.
 At   1 B   9: 100.0% Sh 100.0 % Bf    1 runs, min    4 max    4 av    4.0
 Symmetry reduced   590 angular points to   590 for atom    1.
 At   1 B   5: 100.0% Sh 100.0 % Bf    1 runs, min    4 max    4 av    4.0
 IPart= 10 Atom   1 batch    5 overlaps    2 atoms,     4 shells and     2 DB shells.   NGrid=      1180
 CutRad = 1000.00    CtRdIn =    0.00    XCrit =  15.00   ICut = 0
 IPart=  1 Atom   1 batch    9 overlaps    2 atoms,     4 shells and     2 DB shells.   NGrid=      1180
 Pruned (  99, 590) grid will be used in numerical quadrature.
 Pruned (  99, 590) grid will be used in numerical quadrature.
 Symmetry reduced   590 angular points to   590 for atom    1.
 Pruned (  99, 590) grid will be used in numerical quadrature.
 Symmetry reduced   590 angular points to   590 for atom    1.
 IPart=  3 Atom number   1 atomic number  1 has       21352 grid points.
 IPart=  5 Atom number   1 atomic number  1 has       21352 grid points.
 IPart=  8 Atom number   1 atomic number  1 has       21352 grid points.
 At   1 B  10: 100.0% Sh 100.0 % Bf    1 runs, min    4 max    4 av    4.0
 IPart=  3 Atom   1 batch   10 overlaps    2 atoms,     4 shells and     2 DB shells.   NGrid=      1180
 At   1 B   8: 100.0% Sh 100.0 % Bf    1 runs, min    4 max    4 av    4.0
 IPart=  8 Atom   1 batch    8 overlaps    2 atoms,     4 shells and     2 DB shells.   NGrid=      1180
 Symmetry reduced   590 angular points to   590 for atom    1.
 Pruned (  99, 590) grid will be used in numerical quadrature.
 Symmetry reduced   590 angular points to   590 for atom    1.
 IPart= 11 Atom number   1 atomic number  1 has       21352 grid points.
 At   1 B   7: 100.0% Sh 100.0 % Bf    1 runs, min    4 max    4 av    4.0
 IPart=  6 Atom   1 batch    7 overlaps    2 atoms,     4 shells and     2 DB shells.   NGrid=      1180
 At   1 B  11: 100.0% Sh 100.0 % Bf    1 runs, min    4 max    4 av    4.0
 IPart= 11 Atom   1 batch   11 overlaps    2 atoms,     4 shells and     2 DB shells.   NGrid=      1180
 Symmetry reduced   590 angular points to   590 for atom    1.
 At   1 B   6: 100.0% Sh 100.0 % Bf    1 runs, min    4 max    4 av    4.0
 IPart=  5 Atom   1 batch    6 overlaps    2 atoms,     4 shells and     2 DB shells.   NGrid=      1180
 Symmetry reduced   590 angular points to   590 for atom    1.
 Symmetry reduced   590 angular points to   590 for atom    1.
 IPart=  7 IRanGd=          0 ScrnBf=T ScrnGd=T RCrit=4.00D+00 DoMicB=T.
 CutRad = 1000.00    CtRdIn =    0.00    XCrit =  15.00   ICut = 0
 Pruned (  99, 590) grid will be used in numerical quadrature.
 IPart=  7 Atom number   1 atomic number  1 has       21352 grid points.
 At   1 B  12: 100.0% Sh 100.0 % Bf    1 runs, min    4 max    4 av    4.0
 IPart=  7 Atom   1 batch   12 overlaps    2 atoms,     4 shells and     2 DB shells.   NGrid=      1180
 Symmetry reduced   590 angular points to   590 for atom    1.
 At   1 B  13: 100.0% Sh 100.0 % Bf    1 runs, min    4 max    4 av    4.0
 IPart=  1 Atom   1 batch   13 overlaps    2 atoms,     4 shells and     2 DB shells.   NGrid=       604
 At   1 B  15: 100.0% Sh 100.0 % Bf    1 runs, min    4 max    4 av    4.0
 IPart=  2 Atom   1 batch   15 overlaps    2 atoms,     4 shells and     2 DB shells.   NGrid=       604
 At   1 B  17:  50.0% Sh  50.0 % Bf    2 runs, min    1 max    1 av    1.0
 IPart=  5 Atom   1 batch   17 overlaps    2 atoms,     2 shells and     2 DB shells.   NGrid=       604
 Symmetry reduced   302 angular points to   302 for atom    1.
 Symmetry reduced   302 angular points to   302 for atom    1.
 At   1 B  14: 100.0% Sh 100.0 % Bf    1 runs, min    4 max    4 av    4.0
 IPart=  8 Atom   1 batch   14 overlaps    2 atoms,     4 shells and     2 DB shells.   NGrid=       604
 Symmetry reduced   302 angular points to   302 for atom    1.
 At   1 B  16:  75.0% Sh  75.0 % Bf    2 runs, min    1 max    2 av    1.5
 IPart= 10 Atom   1 batch   16 overlaps    2 atoms,     3 shells and     2 DB shells.   NGrid=       604
 Symmetry reduced   302 angular points to   302 for atom    1.
 At   1 B  18:  50.0% Sh  50.0 % Bf    2 runs, min    1 max    1 av    1.0
 IPart= 11 Atom   1 batch   18 overlaps    2 atoms,     2 shells and     2 DB shells.   NGrid=       604
 Symmetry reduced   302 angular points to   302 for atom    1.
 Symmetry reduced   302 angular points to   302 for atom    1.
 At   1 B  19:  25.0% Sh  25.0 % Bf    1 runs, min    1 max    1 av    1.0
 IPart=  7 Atom   1 batch   19 overlaps    2 atoms,     1 shells and     2 DB shells.   NGrid=       302
 Symmetry reduced   302 angular points to   302 for atom    1.
 Pruned (  99, 590) grid will be used in numerical quadrature.
 IPart=  3 Atom number   2 atomic number  1 has       21352 grid points.
 At   2 B   1: 100.0% Sh 100.0 % Bf    1 runs, min    4 max    4 av    4.0
 IPart=  3 Atom   2 batch    1 overlaps    2 atoms,     4 shells and     2 DB shells.   NGrid=      2838
 Pruned (  99, 590) grid will be used in numerical quadrature.
 Symmetry reduced    86 angular points to    86 for atom    2.
 IPart=  6 Atom number   2 atomic number  1 has       21352 grid points.
 At   2 B   2: 100.0% Sh 100.0 % Bf    1 runs, min    4 max    4 av    4.0
 IPart=  6 Atom   2 batch    2 overlaps    2 atoms,     4 shells and     2 DB shells.   NGrid=      1552
 Symmetry reduced   194 angular points to   194 for atom    2.
 Pruned (  99, 590) grid will be used in numerical quadrature.
 IPart=  4 Atom number   2 atomic number  1 has       21352 grid points.
 At   2 B   3: 100.0% Sh 100.0 % Bf    1 runs, min    4 max    4 av    4.0
 IPart=  4 Atom   2 batch    3 overlaps    2 atoms,     4 shells and     2 DB shells.   NGrid=      2416
 Pruned (  99, 590) grid will be used in numerical quadrature.
 Symmetry reduced   302 angular points to   302 for atom    2.
 IPart=  7 Atom number   2 atomic number  1 has       21352 grid points.
 At   2 B   4: 100.0% Sh 100.0 % Bf    1 runs, min    4 max    4 av    4.0
 IPart=  7 Atom   2 batch    4 overlaps    2 atoms,     4 shells and     2 DB shells.   NGrid=      1180
 Symmetry reduced   590 angular points to   590 for atom    2.
 Pruned (  99, 590) grid will be used in numerical quadrature.
 IPart=  1 Atom number   2 atomic number  1 has       21352 grid points.
 At   2 B   5: 100.0% Sh 100.0 % Bf    1 runs, min    4 max    4 av    4.0
 IPart=  1 Atom   2 batch    5 overlaps    2 atoms,     4 shells and     2 DB shells.   NGrid=      1180
 Symmetry reduced   590 angular points to   590 for atom    2.
 Pruned (  99, 590) grid will be used in numerical quadrature.
 IPart=  8 Atom number   2 atomic number  1 has       21352 grid points.
 Pruned (  99, 590) grid will be used in numerical quadrature.
 At   2 B   6: 100.0% Sh 100.0 % Bf    1 runs, min    4 max    4 av    4.0
 IPart=  8 Atom   2 batch    6 overlaps    2 atoms,     4 shells and     2 DB shells.   NGrid=      1180
 IPart=  2 Atom number   2 atomic number  1 has       21352 grid points.
 At   2 B   7: 100.0% Sh 100.0 % Bf    1 runs, min    4 max    4 av    4.0
 IPart=  2 Atom   2 batch    7 overlaps    2 atoms,     4 shells and     2 DB shells.   NGrid=      1180
 Symmetry reduced   590 angular points to   590 for atom    2.
 Pruned (  99, 590) grid will be used in numerical quadrature.
 Symmetry reduced   590 angular points to   590 for atom    2.
 IPart=  5 Atom number   2 atomic number  1 has       21352 grid points.
 At   2 B   9: 100.0% Sh 100.0 % Bf    1 runs, min    4 max    4 av    4.0
 IPart=  5 Atom   2 batch    9 overlaps    2 atoms,     4 shells and     2 DB shells.   NGrid=      1180
 Pruned (  99, 590) grid will be used in numerical quadrature.
 Symmetry reduced   590 angular points to   590 for atom    2.
 IPart= 11 Atom number   2 atomic number  1 has       21352 grid points.
 At   2 B   8: 100.0% Sh 100.0 % Bf    1 runs, min    4 max    4 av    4.0
 IPart= 11 Atom   2 batch    8 overlaps    2 atoms,     4 shells and     2 DB shells.   NGrid=      1180
 Pruned (  99, 590) grid will be used in numerical quadrature.
 IPart= 10 Atom number   2 atomic number  1 has       21352 grid points.
 Symmetry reduced   590 angular points to   590 for atom    2.
 At   2 B  10: 100.0% Sh 100.0 % Bf    1 runs, min    4 max    4 av    4.0
 IPart= 10 Atom   2 batch   10 overlaps    2 atoms,     4 shells and     2 DB shells.   NGrid=      1180
 Symmetry reduced   590 angular points to   590 for atom    2.
 Pruned (  99, 590) grid will be used in numerical quadrature.
 IPart=  0 Atom number   2 atomic number  1 has       21352 grid points.
 At   2 B  11: 100.0% Sh 100.0 % Bf    1 runs, min    4 max    4 av    4.0
 IPart=  0 Atom   2 batch   11 overlaps    2 atoms,     4 shells and     2 DB shells.   NGrid=      1180
 Symmetry reduced   590 angular points to   590 for atom    2.
 At   2 B  12: 100.0% Sh 100.0 % Bf    1 runs, min    4 max    4 av    4.0
 IPart=  7 Atom   2 batch   12 overlaps    2 atoms,     4 shells and     2 DB shells.   NGrid=      1180
 Pruned (  99, 590) grid will be used in numerical quadrature.
 IPart=  9 Atom number   2 atomic number  1 has       21352 grid points.
 At   2 B  13: 100.0% Sh 100.0 % Bf    1 runs, min    4 max    4 av    4.0
 IPart=  9 Atom   2 batch   13 overlaps    2 atoms,     4 shells and     2 DB shells.   NGrid=       604
 Symmetry reduced   302 angular points to   302 for atom    2.
 At   2 B  14: 100.0% Sh 100.0 % Bf    1 runs, min    4 max    4 av    4.0
 IPart=  6 Atom   2 batch   14 overlaps    2 atoms,     4 shells and     2 DB shells.   NGrid=       604
 At   2 B  15: 100.0% Sh 100.0 % Bf    1 runs, min    4 max    4 av    4.0
 IPart=  1 Atom   2 batch   15 overlaps    2 atoms,     4 shells and     2 DB shells.   NGrid=       604
 Symmetry reduced   302 angular points to   302 for atom    2.
 Symmetry reduced   302 angular points to   302 for atom    2.
 At   2 B  16:  75.0% Sh  75.0 % Bf    2 runs, min    1 max    2 av    1.5
 IPart=  2 Atom   2 batch   16 overlaps    2 atoms,     3 shells and     2 DB shells.   NGrid=       604
 At   2 B  18:  50.0% Sh  50.0 % Bf    2 runs, min    1 max    1 av    1.0
 IPart=  5 Atom   2 batch   18 overlaps    2 atoms,     2 shells and     2 DB shells.   NGrid=       604
 At   2 B  17:  50.0% Sh  50.0 % Bf    2 runs, min    1 max    1 av    1.0
 IPart=  8 Atom   2 batch   17 overlaps    2 atoms,     2 shells and     2 DB shells.   NGrid=       604
 Symmetry reduced   302 angular points to   302 for atom    2.
 Symmetry reduced   302 angular points to   302 for atom    2.
 Symmetry reduced   302 angular points to   302 for atom    2.
 At   2 B  19:  25.0% Sh  25.0 % Bf    1 runs, min    1 max    1 av    1.0
 IPart= 11 Atom   2 batch   19 overlaps    2 atoms,     1 shells and     2 DB shells.   NGrid=       302
 IPart= 10         2868 of         2964 points in       3 batches and       29 microbatches, Max-NSigAt=       2 Max-NSgAt2=       2
 Symmetry reduced   302 angular points to   302 for atom    2.
 CalDSu-ThDecC:  IPartSL=   10    0 NPrtUSL=   12    1 IThBeg=    0 IThEnd=   11 CPU=   -1 GPU=   -1 NThAct=   12.
 IPart= 11         3083 of         3266 points in       4 batches and       28 microbatches, Max-NSigAt=       2 Max-NSgAt2=       2
 CalDSu-ThDecC:  IPartSL=   11    0 NPrtUSL=   12    1 IThBeg=    0 IThEnd=   11 CPU=   -1 GPU=   -1 NThAct=   11.
 IPart=  9         3400 of         3442 points in       2 batches and       13 microbatches, Max-NSigAt=       2 Max-NSgAt2=       2
 CalDSu-ThDecC:  IPartSL=    9    0 NPrtUSL=   12    1 IThBeg=    0 IThEnd=   11 CPU=   -1 GPU=   -1 NThAct=   10.
 IPart=  6         3268 of         3336 points in       3 batches and       19 microbatches, Max-NSigAt=       2 Max-NSgAt2=       2
 CalDSu-ThDecC:  IPartSL=    6    0 NPrtUSL=   12    1 IThBeg=    0 IThEnd=   11 CPU=   -1 GPU=   -1 NThAct=    9.
 IPart=  0         3530 of         3596 points in       2 batches and       10 microbatches, Max-NSigAt=       2 Max-NSgAt2=       2
 CalDSu-ThDecC:  IPartSL=    0    0 NPrtUSL=   12    1 IThBeg=    0 IThEnd=   11 CPU=   -1 GPU=   -1 NThAct=    8.
 IPart=  1         3434 of         3568 points in       4 batches and       30 microbatches, Max-NSigAt=       2 Max-NSgAt2=       2
 IPart=  5         3404 of         3568 points in       4 batches and       42 microbatches, Max-NSigAt=       2 Max-NSgAt2=       2
 CalDSu-ThDecC:  IPartSL=    1    0 NPrtUSL=   12    1 IThBeg=    0 IThEnd=   11 CPU=   -1 GPU=   -1 NThAct=    7.
 CalDSu-ThDecC:  IPartSL=    5    0 NPrtUSL=   12    1 IThBeg=    0 IThEnd=   11 CPU=   -1 GPU=   -1 NThAct=    6.
 IPart=  7         3669 of         3842 points in       4 batches and       16 microbatches, Max-NSigAt=       2 Max-NSgAt2=       2
 CalDSu-ThDecC:  IPartSL=    7    0 NPrtUSL=   12    1 IThBeg=    0 IThEnd=   11 CPU=   -1 GPU=   -1 NThAct=    5.
 IPart=  4         3968 of         3968 points in       2 batches and        9 microbatches, Max-NSigAt=       2 Max-NSgAt2=       2
 CalDSu-ThDecC:  IPartSL=    4    0 NPrtUSL=   12    1 IThBeg=    0 IThEnd=   11 CPU=   -1 GPU=   -1 NThAct=    4.
 IPart=  8         3420 of         3568 points in       4 batches and       40 microbatches, Max-NSigAt=       2 Max-NSgAt2=       2
 IPart=  2         3458 of         3568 points in       4 batches and       43 microbatches, Max-NSigAt=       2 Max-NSgAt2=       2
 CalDSu-ThDecC:  IPartSL=    2    0 NPrtUSL=   12    1 IThBeg=    0 IThEnd=   11 CPU=   -1 GPU=   -1 NThAct=    3.
 CalDSu-ThDecC:  IPartSL=    8    0 NPrtUSL=   12    1 IThBeg=    0 IThEnd=   11 CPU=   -1 GPU=   -1 NThAct=    2.
 IPart=  3         3964 of         4018 points in       2 batches and       10 microbatches, Max-NSigAt=       2 Max-NSgAt2=       2
 CalDSu-ThDecC:  IPartSL=    3    0 NPrtUSL=   12    1 IThBeg=    0 IThEnd=   11 CPU=   -1 GPU=   -1 NThAct=    1.
 Requested info about the electron count:
 NE=    2 NElCor=    0 El error=9.70D-10 rel=4.85D-10 Tolerance=1.00D-03
 Shell     3     absolute error=4.62D-10              Tolerance=1.20D-02
 Shell     0       signed error=0.00D+00              Tolerance=1.00D-01
 SetAtRh:  ITypeU=  14 NETotI=       2 ICharg=  0 NETot=       2.
 StAtR1:  I=    1 I1=    1 IA=  1 C=   1.0 OKShel=T
                                                  S
                                                  1
 StAtR1:  I=    2 I1=    2 IA=  1 C=   1.0 OKShel=T
                                                  S
                                                  1
          I=    1 IA=  1 I1=    1 NAtG=10 NE=   1.000 C=   1.000 Err=-1.35D-12
          I=    2 IA=  1 I1=    2 NAtG=10 NE=   1.000 C=   1.000 Err=-1.35D-12
 FoFCou: FMM=F IPFlag=           0 FMFlag=      100000 FMFlg1=           0
         NFxFlg=           0 DoJE=T BraDBF=F KetDBF=T FulRan=T
         wScrn=  0.000000 ICntrl=       500 IOpCl=  0 I1Cent=   200000004 NGrid=           0
         NMat0=    1 NMatS0=      1 NMatT0=    0 NMatD0=    1 NMtDS0=    0 NMtDT0=    0
 Symmetry not used in FoFCou.
 FoFCou:  KetSym=T NOpSet=  1 NOpAb=1 NOp=  1.
 FoFCou:  CnvScl= 1.00D+00 Thresh= 1.00D-12 IAcrcy=      10.
 ShPair: Thresh= 1.00D-12 NBox=     0 BxSize= 0.00D+00 RnKept= 1.40D+00
         NSMCal=                   10 NSMKep=                  10
 FoFCou: LinMIO=F DoNuc=F BraDBF=F KetDBF=T HaveP=T PDBF=T HaveZ=F HaveW=F
         NIJTC =       1 NIJTAt=       0 NIJTCD=       1 NIJTT =       2
         IJTBeg=       1 IJTEnd=       1 KLTBeg=       2 KLTEnd=       2
         IPTBeg=       2 IPTEnd=       2 IPTBCv=       2 IPTECv=       2
         IZTBeg=       1 IZTEnd=       1 IZTBCv=       1 IZTECv=       1
         IWTBeg=       2 IWTEnd=       2 IWTBCv=       2 IWTECv=       2
         INTBeg=       1 INTEnd=       0 IFTBCv=       1 IFTECv=       1
 Entering DenIrr
 DenIrr was handed  4294966730 working-precision words and    12 shell-pairs
 Leaving DenIrr, iEnd w/o den=        2066 nHerm=          12.
 CoulSu-InSpLW:  IPartL=    0 NPrtUS=   12 NPrtUL=    1 DoSpLW=F IThBeg=    0 IThEnd=   11 NThAct=   12.
 CoulSu:  IncTry=  1024 NBBP=             20 NTPThr=   100 NPartT=   12 Incr=           1 LDynOK=F GPUOK=F.
 CoulSu:  NPrtUS=  12 ThrOK=T IAlg=1 LenDen=          12 LWGrdD=           0 DoCopy=T ISkipM=0
          DoSpLW=F IThBeg=    0 IThEnd=   11.
 CoulSu:  IPart=    0 IPartR=    0 CPU=   -1 GPU=   -1.
 CoulSu:  IPart=    9 IPartR=    9 CPU=   -1 GPU=   -1.
 CoulSu:  IPart=    1 IPartR=    1 CPU=   -1 GPU=   -1.
 Enter PrismC:  IPart=  0 JobTyp=20 DoJE=T Cont=T.
 CoulSu:  IPart=    5 IPartR=    5 CPU=   -1 GPU=   -1.
 Enter PrismC:  IPart=  9 JobTyp=20 DoJE=T Cont=T.
 CoulSu:  IPart=    8 IPartR=    8 CPU=   -1 GPU=   -1.
 Enter PrismC:  IPart=  1 JobTyp=20 DoJE=T Cont=T.
 CoulSu:  IPart=    6 IPartR=    6 CPU=   -1 GPU=   -1.
 Enter PrismC:  IPart=  5 JobTyp=20 DoJE=T Cont=T.
 CoulSu:  IPart=    3 IPartR=    3 CPU=   -1 GPU=   -1.
 Enter PrismC:  IPart=  8 JobTyp=20 DoJE=T Cont=T.
 CoulSu:  IPart=    7 IPartR=    7 CPU=   -1 GPU=   -1.
 Enter PrismC:  IPart=  6 JobTyp=20 DoJE=T Cont=T.
 CoulSu:  IPart=   10 IPartR=   10 CPU=   -1 GPU=   -1.
 Enter PrismC:  IPart=  3 JobTyp=20 DoJE=T Cont=T.
 Enter PrismC:  IPart=  7 JobTyp=20 DoJE=T Cont=T.
 CoulSu:  IPart=   11 IPartR=   11 CPU=   -1 GPU=   -1.
 Enter PrismC:  IPart= 10 JobTyp=20 DoJE=T Cont=T.
 CoulSu:  IPart=    2 IPartR=    2 CPU=   -1 GPU=   -1.
 Enter PrismC:  IPart= 11 JobTyp=20 DoJE=T Cont=T.
 CoulSu:  IPart=    4 IPartR=    4 CPU=   -1 GPU=   -1.
 Enter PrismC:  IPart=  2 JobTyp=20 DoJE=T Cont=T.
 PrismC:  IPart=     0 DynPar=F LinDyn=F Incr=           1 UseFst=F UseS4=T ISplat=2.
 Enter PrismC:  IPart=  4 JobTyp=20 DoJE=T Cont=T.
 PrismC:  IPart=     2 DynPar=F LinDyn=F Incr=           1 UseFst=F UseS4=T ISplat=2.
 PrismC was handed   357912731 working-precision words and    10 shell-pairs
 PrismC was handed   357912731 working-precision words and    10 shell-pairs
 PrismC:  IPart=     5 DynPar=F LinDyn=F Incr=           1 UseFst=F UseS4=T ISplat=2.
 PrismC:  IPart=    10 DynPar=F LinDyn=F Incr=           1 UseFst=F UseS4=T ISplat=2.
 PrismC:  IPart=     1 DynPar=F LinDyn=F Incr=           1 UseFst=F UseS4=T ISplat=2.
 PrismC:  IPart=     6 DynPar=F LinDyn=F Incr=           1 UseFst=F UseS4=T ISplat=2.
 PrismC was handed   357912731 working-precision words and    10 shell-pairs
 PrismC:  IPart=     9 DynPar=F LinDyn=F Incr=           1 UseFst=F UseS4=T ISplat=2.
 PrismC:  IPart=     3 DynPar=F LinDyn=F Incr=           1 UseFst=F UseS4=T ISplat=2.
 PrismC:  IPart=     8 DynPar=F LinDyn=F Incr=           1 UseFst=F UseS4=T ISplat=2.
 PrismC was handed   357912731 working-precision words and    10 shell-pairs
 PrismC:  IPart=     4 DynPar=F LinDyn=F Incr=           1 UseFst=F UseS4=T ISplat=2.
 PrismC was handed   357912731 working-precision words and    10 shell-pairs
 PrismC:  IPart=     7 DynPar=F LinDyn=F Incr=           1 UseFst=F UseS4=T ISplat=2.
 PrismC was handed   357912731 working-precision words and    10 shell-pairs
 PrismC:  IPart=    11 DynPar=F LinDyn=F Incr=           1 UseFst=F UseS4=T ISplat=2.
 PrismC was handed   357912731 working-precision words and    10 shell-pairs
 PrismC was handed   357912731 working-precision words and    10 shell-pairs
 PrismC was handed   357912731 working-precision words and    10 shell-pairs
 PrismC was handed   357912731 working-precision words and    10 shell-pairs
 PrismC was handed   357912731 working-precision words and    10 shell-pairs
 PrismC was handed   357912731 working-precision words and    10 shell-pairs
 IPart=  2 NShTot=           0 NShNF=           0 NShFF=           0 MinMC=     219
           NShCPU=           0 NBCPU=           0 AvBCPU=         0.0
           NShGPU=           0 NBGPU=           0 AvBGPU=         0.0
 CoulSu-ThDecC:  IPartSL=    2    0 NPrtUSL=   12    1 IThBeg=    0 IThEnd=   11 CPU=   -1 GPU=   -1 NThAct=   12.
 IPart=  6 NShTot=           0 NShNF=           0 NShFF=           0 MinMC=     219
           NShCPU=           0 NBCPU=           0 AvBCPU=         0.0
           NShGPU=           0 NBGPU=           0 AvBGPU=         0.0
 IPart= 11 NShTot=           0 NShNF=           0 NShFF=           0 MinMC=     219
           NShCPU=           0 NBCPU=           0 AvBCPU=         0.0
           NShGPU=           0 NBGPU=           0 AvBGPU=         0.0
 CoulSu-ThDecC:  IPartSL=    6    0 NPrtUSL=   12    1 IThBeg=    0 IThEnd=   11 CPU=   -1 GPU=   -1 NThAct=   11.
 IPart=  5 NShTot=           0 NShNF=           0 NShFF=           0 MinMC=     219
           NShCPU=           0 NBCPU=           0 AvBCPU=         0.0
           NShGPU=           0 NBGPU=           0 AvBGPU=         0.0
 IPart=  3 NShTot=           0 NShNF=           0 NShFF=           0 MinMC=     219
           NShCPU=           0 NBCPU=           0 AvBCPU=         0.0
           NShGPU=           0 NBGPU=           0 AvBGPU=         0.0
 CoulSu-ThDecC:  IPartSL=   11    0 NPrtUSL=   12    1 IThBeg=    0 IThEnd=   11 CPU=   -1 GPU=   -1 NThAct=   10.
 CoulSu-ThDecC:  IPartSL=    5    0 NPrtUSL=   12    1 IThBeg=    0 IThEnd=   11 CPU=   -1 GPU=   -1 NThAct=    9.
 IPart=  8 NShTot=           0 NShNF=           0 NShFF=           0 MinMC=     219
           NShCPU=           0 NBCPU=           0 AvBCPU=         0.0
           NShGPU=           0 NBGPU=           0 AvBGPU=         0.0
 CoulSu-ThDecC:  IPartSL=    3    0 NPrtUSL=   12    1 IThBeg=    0 IThEnd=   11 CPU=   -1 GPU=   -1 NThAct=    8.
 IPart=  9 NShTot=           0 NShNF=           0 NShFF=           0 MinMC=     219
           NShCPU=           0 NBCPU=           0 AvBCPU=         0.0
           NShGPU=           0 NBGPU=           0 AvBGPU=         0.0
 CoulSu-ThDecC:  IPartSL=    8    0 NPrtUSL=   12    1 IThBeg=    0 IThEnd=   11 CPU=   -1 GPU=   -1 NThAct=    7.
 CoulSu-ThDecC:  IPartSL=    9    0 NPrtUSL=   12    1 IThBeg=    0 IThEnd=   11 CPU=   -1 GPU=   -1 NThAct=    6.
 IPart= 10 NShTot=           0 NShNF=           0 NShFF=           0 MinMC=     219
           NShCPU=           0 NBCPU=           0 AvBCPU=         0.0
           NShGPU=           0 NBGPU=           0 AvBGPU=         0.0
 CoulSu-ThDecC:  IPartSL=   10    0 NPrtUSL=   12    1 IThBeg=    0 IThEnd=   11 CPU=   -1 GPU=   -1 NThAct=    5.
 IPart=  4 NShTot=           0 NShNF=           0 NShFF=           0 MinMC=     219
           NShCPU=           0 NBCPU=           0 AvBCPU=         0.0
           NShGPU=           0 NBGPU=           0 AvBGPU=         0.0
 CoulSu-ThDecC:  IPartSL=    4    0 NPrtUSL=   12    1 IThBeg=    0 IThEnd=   11 CPU=   -1 GPU=   -1 NThAct=    4.
 IPart=  7 NShTot=           0 NShNF=           0 NShFF=           0 MinMC=     219
           NShCPU=           0 NBCPU=           0 AvBCPU=         0.0
           NShGPU=           0 NBGPU=           0 AvBGPU=         0.0
 CoulSu-ThDecC:  IPartSL=    7    0 NPrtUSL=   12    1 IThBeg=    0 IThEnd=   11 CPU=   -1 GPU=   -1 NThAct=    3.
 IPart=  1 NShTot=          10 NShNF=          10 NShFF=           0 MinMC=     219
           NShCPU=          10 NBCPU=          10 AvBCPU=         1.0
           NShGPU=           0 NBGPU=           0 AvBGPU=         0.0
 CoulSu-ThDecC:  IPartSL=    1    0 NPrtUSL=   12    1 IThBeg=    0 IThEnd=   11 CPU=   -1 GPU=   -1 NThAct=    2.
 IPart=  0 NShTot=          10 NShNF=          10 NShFF=           0 MinMC=     219
           NShCPU=          10 NBCPU=          10 AvBCPU=         1.0
           NShGPU=           0 NBGPU=           0 AvBGPU=         0.0
 CoulSu-ThDecC:  IPartSL=    0    0 NPrtUSL=   12    1 IThBeg=    0 IThEnd=   11 CPU=   -1 GPU=   -1 NThAct=    1.
 CoulSu:  NxtVal=             13 LenVP=      357912732 MinMC=     219.
 Entering FocIrr
 FocIrr was handed  4294964641 working-precision words and    10 shell-pairs
 Leaving FocIrr
 Entering DenIrr
 DenIrr was handed  4294966730 working-precision words and    12 shell-pairs
 Leaving DenIrr, iEnd w/o den=        2278 nHerm=          62.
 CoulSu-InSpLW:  IPartL=    0 NPrtUS=   12 NPrtUL=    1 DoSpLW=F IThBeg=    0 IThEnd=   11 NThAct=   12.
 CoulSu:  IncTry=  1024 NBBP=             20 NTPThr=   100 NPartT=   12 Incr=           1 LDynOK=F GPUOK=F.
 CoulSu:  NPrtUS=  12 ThrOK=T IAlg=1 LenDen=          62 LWGrdD=           0 DoCopy=T ISkipM=0
          DoSpLW=F IThBeg=    0 IThEnd=   11.
 CoulSu:  IPart=    8 IPartR=    8 CPU=   -1 GPU=   -1.
 CoulSu:  IPart=    4 IPartR=    4 CPU=   -1 GPU=   -1.
 Enter PrismC:  IPart=  8 JobTyp=20 DoJE=T Cont=F.
 CoulSu:  IPart=    0 IPartR=    0 CPU=   -1 GPU=   -1.
 PrismC:  IPart=     8 DynPar=F LinDyn=F Incr=           1 UseFst=F UseS4=T ISplat=2.
 Enter PrismC:  IPart=  4 JobTyp=20 DoJE=T Cont=F.
 CoulSu:  IPart=    5 IPartR=    5 CPU=   -1 GPU=   -1.
 Enter PrismC:  IPart=  0 JobTyp=20 DoJE=T Cont=F.
 PrismC:  IPart=     4 DynPar=F LinDyn=F Incr=           1 UseFst=F UseS4=T ISplat=2.
 PrismC:  IPart=     0 DynPar=F LinDyn=F Incr=           1 UseFst=F UseS4=T ISplat=2.
 Enter PrismC:  IPart=  5 JobTyp=20 DoJE=T Cont=F.
 CoulSu:  IPart=    2 IPartR=    2 CPU=   -1 GPU=   -1.
 PrismC:  IPart=     5 DynPar=F LinDyn=F Incr=           1 UseFst=F UseS4=T ISplat=2.
 Enter PrismC:  IPart=  2 JobTyp=20 DoJE=T Cont=F.
 PrismC was handed   357912613 working-precision words and    10 shell-pairs
 PrismC:  IPart=     2 DynPar=F LinDyn=F Incr=           1 UseFst=F UseS4=T ISplat=2.
 CoulSu:  IPart=    1 IPartR=    1 CPU=   -1 GPU=   -1.
 PrismC was handed   357912613 working-precision words and    10 shell-pairs
 Enter PrismC:  IPart=  1 JobTyp=20 DoJE=T Cont=F.
 PrismC was handed   357912613 working-precision words and    10 shell-pairs
 CoulSu:  IPart=   10 IPartR=   10 CPU=   -1 GPU=   -1.
 PrismC was handed   357912613 working-precision words and    10 shell-pairs
 Enter PrismC:  IPart= 10 JobTyp=20 DoJE=T Cont=F.
 PrismC:  IPart=     1 DynPar=F LinDyn=F Incr=           1 UseFst=F UseS4=T ISplat=2.
 PrismC was handed   357912613 working-precision words and    10 shell-pairs
 PrismC was handed   357912613 working-precision words and    10 shell-pairs
 CoulSu:  IPart=    7 IPartR=    7 CPU=   -1 GPU=   -1.
 PrismC:  IPart=    10 DynPar=F LinDyn=F Incr=           1 UseFst=F UseS4=T ISplat=2.
 CoulSu:  IPart=    9 IPartR=    9 CPU=   -1 GPU=   -1.
 PrismC was handed   357912613 working-precision words and    10 shell-pairs
 CoulSu:  IPart=    6 IPartR=    6 CPU=   -1 GPU=   -1.
 Enter PrismC:  IPart=  7 JobTyp=20 DoJE=T Cont=F.
 CoulSu:  IPart=   11 IPartR=   11 CPU=   -1 GPU=   -1.
 PrismC:  IPart=     7 DynPar=F LinDyn=F Incr=           1 UseFst=F UseS4=T ISplat=2.
 PrismC was handed   357912613 working-precision words and    10 shell-pairs
 CoulSu:  IPart=    3 IPartR=    3 CPU=   -1 GPU=   -1.
 Enter PrismC:  IPart=  6 JobTyp=20 DoJE=T Cont=F.
 Enter PrismC:  IPart= 11 JobTyp=20 DoJE=T Cont=F.
 Enter PrismC:  IPart=  3 JobTyp=20 DoJE=T Cont=F.
 PrismC:  IPart=     6 DynPar=F LinDyn=F Incr=           1 UseFst=F UseS4=T ISplat=2.
 Enter PrismC:  IPart=  9 JobTyp=20 DoJE=T Cont=F.
 PrismC was handed   357912613 working-precision words and    10 shell-pairs
 PrismC:  IPart=    11 DynPar=F LinDyn=F Incr=           1 UseFst=F UseS4=T ISplat=2.
 PrismC:  IPart=     3 DynPar=F LinDyn=F Incr=           1 UseFst=F UseS4=T ISplat=2.
 PrismC was handed   357912613 working-precision words and    10 shell-pairs
 PrismC:  IPart=     9 DynPar=F LinDyn=F Incr=           1 UseFst=F UseS4=T ISplat=2.
 PrismC was handed   357912613 working-precision words and    10 shell-pairs
 PrismC was handed   357912613 working-precision words and    10 shell-pairs
 IPart=  8 NShTot=           0 NShNF=           0 NShFF=           0 MinMC=     198
           NShCPU=           0 NBCPU=           0 AvBCPU=         0.0
           NShGPU=           0 NBGPU=           0 AvBGPU=         0.0
 CoulSu-ThDecC:  IPartSL=    8    0 NPrtUSL=   12    1 IThBeg=    0 IThEnd=   11 CPU=   -1 GPU=   -1 NThAct=   12.
 IPart=  4 NShTot=           0 NShNF=           0 NShFF=           0 MinMC=     198
           NShCPU=           0 NBCPU=           0 AvBCPU=         0.0
           NShGPU=           0 NBGPU=           0 AvBGPU=         0.0
 CoulSu-ThDecC:  IPartSL=    4    0 NPrtUSL=   12    1 IThBeg=    0 IThEnd=   11 CPU=   -1 GPU=   -1 NThAct=   11.
 IPart=  2 NShTot=           0 NShNF=           0 NShFF=           0 MinMC=     198
           NShCPU=           0 NBCPU=           0 AvBCPU=         0.0
           NShGPU=           0 NBGPU=           0 AvBGPU=         0.0
 CoulSu-ThDecC:  IPartSL=    2    0 NPrtUSL=   12    1 IThBeg=    0 IThEnd=   11 CPU=   -1 GPU=   -1 NThAct=   10.
 IPart=  0 NShTot=           0 NShNF=           0 NShFF=           0 MinMC=     198
           NShCPU=           0 NBCPU=           0 AvBCPU=         0.0
           NShGPU=           0 NBGPU=           0 AvBGPU=         0.0
 IPart= 10 NShTot=           0 NShNF=           0 NShFF=           0 MinMC=     198
           NShCPU=           0 NBCPU=           0 AvBCPU=         0.0
           NShGPU=           0 NBGPU=           0 AvBGPU=         0.0
 IPart= 11 NShTot=           0 NShNF=           0 NShFF=           0 MinMC=     198
           NShCPU=           0 NBCPU=           0 AvBCPU=         0.0
           NShGPU=           0 NBGPU=           0 AvBGPU=         0.0
 IPart=  5 NShTot=           0 NShNF=           0 NShFF=           0 MinMC=     198
           NShCPU=           0 NBCPU=           0 AvBCPU=         0.0
           NShGPU=           0 NBGPU=           0 AvBGPU=         0.0
 IPart=  7 NShTot=           0 NShNF=           0 NShFF=           0 MinMC=     198
           NShCPU=           0 NBCPU=           0 AvBCPU=         0.0
           NShGPU=           0 NBGPU=           0 AvBGPU=         0.0
 IPart=  1 NShTot=           0 NShNF=           0 NShFF=           0 MinMC=     198
           NShCPU=           0 NBCPU=           0 AvBCPU=         0.0
           NShGPU=           0 NBGPU=           0 AvBGPU=         0.0
 IPart=  3 NShTot=           0 NShNF=           0 NShFF=           0 MinMC=     198
           NShCPU=           0 NBCPU=           0 AvBCPU=         0.0
           NShGPU=           0 NBGPU=           0 AvBGPU=         0.0
 IPart=  6 NShTot=           0 NShNF=           0 NShFF=           0 MinMC=     198
           NShCPU=           0 NBCPU=           0 AvBCPU=         0.0
           NShGPU=           0 NBGPU=           0 AvBGPU=         0.0
 CoulSu-ThDecC:  IPartSL=    0    0 NPrtUSL=   12    1 IThBeg=    0 IThEnd=   11 CPU=   -1 GPU=   -1 NThAct=    9.
 CoulSu-ThDecC:  IPartSL=    7    0 NPrtUSL=   12    1 IThBeg=    0 IThEnd=   11 CPU=   -1 GPU=   -1 NThAct=    8.
 CoulSu-ThDecC:  IPartSL=    1    0 NPrtUSL=   12    1 IThBeg=    0 IThEnd=   11 CPU=   -1 GPU=   -1 NThAct=    7.
 CoulSu-ThDecC:  IPartSL=    5    0 NPrtUSL=   12    1 IThBeg=    0 IThEnd=   11 CPU=   -1 GPU=   -1 NThAct=    6.
 CoulSu-ThDecC:  IPartSL=    6    0 NPrtUSL=   12    1 IThBeg=    0 IThEnd=   11 CPU=   -1 GPU=   -1 NThAct=    5.
 CoulSu-ThDecC:  IPartSL=    3    0 NPrtUSL=   12    1 IThBeg=    0 IThEnd=   11 CPU=   -1 GPU=   -1 NThAct=    4.
 IPart=  9 NShTot=           0 NShNF=           0 NShFF=           0 MinMC=     198
           NShCPU=           0 NBCPU=           0 AvBCPU=         0.0
           NShGPU=           0 NBGPU=           0 AvBGPU=         0.0
 CoulSu-ThDecC:  IPartSL=   11    0 NPrtUSL=   12    1 IThBeg=    0 IThEnd=   11 CPU=   -1 GPU=   -1 NThAct=    3.
 CoulSu-ThDecC:  IPartSL=    9    0 NPrtUSL=   12    1 IThBeg=    0 IThEnd=   11 CPU=   -1 GPU=   -1 NThAct=    2.
 CoulSu-ThDecC:  IPartSL=   10    0 NPrtUSL=   12    1 IThBeg=    0 IThEnd=   11 CPU=   -1 GPU=   -1 NThAct=    1.
 CoulSu:  NxtVal=             13 LenVP=      357912614 MinMC=     198.
 Entering FocIrr
 FocIrr was handed  4294964329 working-precision words and    10 shell-pairs
 Leaving FocIrr
 FoFCou: FMM=F IPFlag=           0 FMFlag=      100000 FMFlg1=           0
         NFxFlg=           0 DoJE=T BraDBF=T KetDBF=T FulRan=T
         wScrn=  0.000000 ICntrl=       500 IOpCl=  0 I1Cent=   200000006 NGrid=           0
         NMat0=    1 NMatS0=      1 NMatT0=    0 NMatD0=    1 NMtDS0=    0 NMtDT0=    0
 Symmetry not used in FoFCou.
 FoFCou:  KetSym=T NOpSet=  1 NOpAb=1 NOp=  1.
 FoFCou:  CnvScl= 1.00D+00 Thresh= 1.00D-12 IAcrcy=      10.
 FoFCou: LinMIO=F DoNuc=F BraDBF=T KetDBF=T HaveP=T PDBF=T HaveZ=F HaveW=F
         NIJTC =       0 NIJTAt=       0 NIJTCD=       1 NIJTT =       1
         IJTBeg=       1 IJTEnd=       1 KLTBeg=       1 KLTEnd=       1
         IPTBeg=       1 IPTEnd=       1 IPTBCv=       1 IPTECv=       1
         IZTBeg=       1 IZTEnd=       0 IZTBCv=       1 IZTECv=       1
         IWTBeg=       1 IWTEnd=       1 IWTBCv=       1 IWTECv=       1
         INTBeg=       1 INTEnd=       0 IFTBCv=       1 IFTECv=       1
 Entering DenIrr
 DenIrr was handed  4294966730 working-precision words and     2 shell-pairs
 Leaving DenIrr, iEnd w/o den=        1149 nHerm=           2.
 CoulSu-InSpLW:  IPartL=    0 NPrtUS=   12 NPrtUL=    1 DoSpLW=F IThBeg=    0 IThEnd=   11 NThAct=   12.
 CoulSu:  IncTry=  1024 NBBP=              4 NTPThr=   100 NPartT=   12 Incr=           1 LDynOK=F GPUOK=F.
 CoulSu:  NPrtUS=  12 ThrOK=T IAlg=1 LenDen=           2 LWGrdD=           0 DoCopy=T ISkipM=0
          DoSpLW=F IThBeg=    0 IThEnd=   11.
 CoulSu:  IPart=    6 IPartR=    6 CPU=   -1 GPU=   -1.
 CoulSu:  IPart=    5 IPartR=    5 CPU=   -1 GPU=   -1.
 Enter PrismC:  IPart=  6 JobTyp=20 DoJE=T Cont=T.
 CoulSu:  IPart=    2 IPartR=    2 CPU=   -1 GPU=   -1.
 PrismC:  IPart=     6 DynPar=F LinDyn=F Incr=           1 UseFst=F UseS4=T ISplat=2.
 Enter PrismC:  IPart=  5 JobTyp=20 DoJE=T Cont=T.
 CoulSu:  IPart=    0 IPartR=    0 CPU=   -1 GPU=   -1.
 CoulSu:  IPart=    4 IPartR=    4 CPU=   -1 GPU=   -1.
 PrismC:  IPart=     5 DynPar=F LinDyn=F Incr=           1 UseFst=F UseS4=T ISplat=2.
 CoulSu:  IPart=    9 IPartR=    9 CPU=   -1 GPU=   -1.
 CoulSu:  IPart=    3 IPartR=    3 CPU=   -1 GPU=   -1.
 CoulSu:  IPart=    1 IPartR=    1 CPU=   -1 GPU=   -1.
 CoulSu:  IPart=   10 IPartR=   10 CPU=   -1 GPU=   -1.
 CoulSu:  IPart=    8 IPartR=    8 CPU=   -1 GPU=   -1.
 PrismC was handed   357913135 working-precision words and     2 shell-pairs
 CoulSu:  IPart=    7 IPartR=    7 CPU=   -1 GPU=   -1.
 PrismC was handed   357913135 working-precision words and     2 shell-pairs
 CoulSu:  IPart=   11 IPartR=   11 CPU=   -1 GPU=   -1.
 Enter PrismC:  IPart=  2 JobTyp=20 DoJE=T Cont=T.
 Enter PrismC:  IPart=  1 JobTyp=20 DoJE=T Cont=T.
 PrismC:  IPart=     2 DynPar=F LinDyn=F Incr=           1 UseFst=F UseS4=T ISplat=2.
 PrismC was handed   357913135 working-precision words and     2 shell-pairs
 PrismC:  IPart=     1 DynPar=F LinDyn=F Incr=           1 UseFst=F UseS4=T ISplat=2.
 Enter PrismC:  IPart=  7 JobTyp=20 DoJE=T Cont=T.
 Enter PrismC:  IPart=  0 JobTyp=20 DoJE=T Cont=T.
 PrismC was handed   357913135 working-precision words and     2 shell-pairs
 Enter PrismC:  IPart= 11 JobTyp=20 DoJE=T Cont=T.
 PrismC:  IPart=     7 DynPar=F LinDyn=F Incr=           1 UseFst=F UseS4=T ISplat=2.
 Enter PrismC:  IPart=  4 JobTyp=20 DoJE=T Cont=T.
 PrismC was handed   357913135 working-precision words and     2 shell-pairs
 Enter PrismC:  IPart= 10 JobTyp=20 DoJE=T Cont=T.
 PrismC:  IPart=    11 DynPar=F LinDyn=F Incr=           1 UseFst=F UseS4=T ISplat=2.
 PrismC:  IPart=    10 DynPar=F LinDyn=F Incr=           1 UseFst=F UseS4=T ISplat=2.
 PrismC was handed   357913135 working-precision words and     2 shell-pairs
 PrismC:  IPart=     0 DynPar=F LinDyn=F Incr=           1 UseFst=F UseS4=T ISplat=2.
 Enter PrismC:  IPart=  8 JobTyp=20 DoJE=T Cont=T.
 PrismC:  IPart=     4 DynPar=F LinDyn=F Incr=           1 UseFst=F UseS4=T ISplat=2.
 PrismC was handed   357913135 working-precision words and     2 shell-pairs
 PrismC:  IPart=     8 DynPar=F LinDyn=F Incr=           1 UseFst=F UseS4=T ISplat=2.
 PrismC was handed   357913135 working-precision words and     2 shell-pairs
 Enter PrismC:  IPart=  3 JobTyp=20 DoJE=T Cont=T.
 PrismC was handed   357913135 working-precision words and     2 shell-pairs
 PrismC:  IPart=     3 DynPar=F LinDyn=F Incr=           1 UseFst=F UseS4=T ISplat=2.
 Enter PrismC:  IPart=  9 JobTyp=20 DoJE=T Cont=T.
 PrismC was handed   357913135 working-precision words and     2 shell-pairs
 PrismC was handed   357913135 working-precision words and     2 shell-pairs
 PrismC:  IPart=     9 DynPar=F LinDyn=F Incr=           1 UseFst=F UseS4=T ISplat=2.
 PrismC was handed   357913135 working-precision words and     2 shell-pairs
 IPart=  6 NShTot=           0 NShNF=           0 NShFF=           0 MinMC=     198
           NShCPU=           0 NBCPU=           0 AvBCPU=         0.0
           NShGPU=           0 NBGPU=           0 AvBGPU=         0.0
 CoulSu-ThDecC:  IPartSL=    6    0 NPrtUSL=   12    1 IThBeg=    0 IThEnd=   11 CPU=   -1 GPU=   -1 NThAct=   12.
 IPart=  5 NShTot=           0 NShNF=           0 NShFF=           0 MinMC=     198
           NShCPU=           0 NBCPU=           0 AvBCPU=         0.0
           NShGPU=           0 NBGPU=           0 AvBGPU=         0.0
 CoulSu-ThDecC:  IPartSL=    5    0 NPrtUSL=   12    1 IThBeg=    0 IThEnd=   11 CPU=   -1 GPU=   -1 NThAct=   11.
 IPart=  2 NShTot=           0 NShNF=           0 NShFF=           0 MinMC=     198
           NShCPU=           0 NBCPU=           0 AvBCPU=         0.0
           NShGPU=           0 NBGPU=           0 AvBGPU=         0.0
 CoulSu-ThDecC:  IPartSL=    2    0 NPrtUSL=   12    1 IThBeg=    0 IThEnd=   11 CPU=   -1 GPU=   -1 NThAct=   10.
 IPart=  1 NShTot=           2 NShNF=           2 NShFF=           0 MinMC=     198
           NShCPU=           2 NBCPU=           2 AvBCPU=         1.0
           NShGPU=           0 NBGPU=           0 AvBGPU=         0.0
 CoulSu-ThDecC:  IPartSL=    1    0 NPrtUSL=   12    1 IThBeg=    0 IThEnd=   11 CPU=   -1 GPU=   -1 NThAct=    9.
 IPart= 10 NShTot=           0 NShNF=           0 NShFF=           0 MinMC=     198
           NShCPU=           0 NBCPU=           0 AvBCPU=         0.0
           NShGPU=           0 NBGPU=           0 AvBGPU=         0.0
 IPart= 11 NShTot=           0 NShNF=           0 NShFF=           0 MinMC=     198
           NShCPU=           0 NBCPU=           0 AvBCPU=         0.0
           NShGPU=           0 NBGPU=           0 AvBGPU=         0.0
 CoulSu-ThDecC:  IPartSL=   10    0 NPrtUSL=   12    1 IThBeg=    0 IThEnd=   11 CPU=   -1 GPU=   -1 NThAct=    8.
 IPart=  0 NShTot=           2 NShNF=           2 NShFF=           0 MinMC=     198
           NShCPU=           2 NBCPU=           2 AvBCPU=         1.0
           NShGPU=           0 NBGPU=           0 AvBGPU=         0.0
 CoulSu-ThDecC:  IPartSL=   11    0 NPrtUSL=   12    1 IThBeg=    0 IThEnd=   11 CPU=   -1 GPU=   -1 NThAct=    7.
 IPart=  8 NShTot=           0 NShNF=           0 NShFF=           0 MinMC=     198
           NShCPU=           0 NBCPU=           0 AvBCPU=         0.0
           NShGPU=           0 NBGPU=           0 AvBGPU=         0.0
 CoulSu-ThDecC:  IPartSL=    0    0 NPrtUSL=   12    1 IThBeg=    0 IThEnd=   11 CPU=   -1 GPU=   -1 NThAct=    6.
 CoulSu-ThDecC:  IPartSL=    8    0 NPrtUSL=   12    1 IThBeg=    0 IThEnd=   11 CPU=   -1 GPU=   -1 NThAct=    5.
 IPart=  4 NShTot=           0 NShNF=           0 NShFF=           0 MinMC=     198
           NShCPU=           0 NBCPU=           0 AvBCPU=         0.0
           NShGPU=           0 NBGPU=           0 AvBGPU=         0.0
 CoulSu-ThDecC:  IPartSL=    4    0 NPrtUSL=   12    1 IThBeg=    0 IThEnd=   11 CPU=   -1 GPU=   -1 NThAct=    4.
 IPart=  9 NShTot=           0 NShNF=           0 NShFF=           0 MinMC=     198
           NShCPU=           0 NBCPU=           0 AvBCPU=         0.0
           NShGPU=           0 NBGPU=           0 AvBGPU=         0.0
 CoulSu-ThDecC:  IPartSL=    9    0 NPrtUSL=   12    1 IThBeg=    0 IThEnd=   11 CPU=   -1 GPU=   -1 NThAct=    3.
 IPart=  7 NShTot=           0 NShNF=           0 NShFF=           0 MinMC=     198
           NShCPU=           0 NBCPU=           0 AvBCPU=         0.0
           NShGPU=           0 NBGPU=           0 AvBGPU=         0.0
 CoulSu-ThDecC:  IPartSL=    7    0 NPrtUSL=   12    1 IThBeg=    0 IThEnd=   11 CPU=   -1 GPU=   -1 NThAct=    2.
 IPart=  3 NShTot=           0 NShNF=           0 NShFF=           0 MinMC=     198
           NShCPU=           0 NBCPU=           0 AvBCPU=         0.0
           NShGPU=           0 NBGPU=           0 AvBGPU=         0.0
 CoulSu-ThDecC:  IPartSL=    3    0 NPrtUSL=   12    1 IThBeg=    0 IThEnd=   11 CPU=   -1 GPU=   -1 NThAct=    1.
 CoulSu:  NxtVal=             13 LenVP=      357913136 MinMC=     198.
 Entering FocIrr
 FocIrr was handed  4294965578 working-precision words and     2 shell-pairs
 Leaving FocIrr
 Entering DenIrr
 DenIrr was handed  4294966730 working-precision words and     2 shell-pairs
 Leaving DenIrr, iEnd w/o den=        1175 nHerm=          20.
 CoulSu-InSpLW:  IPartL=    0 NPrtUS=   12 NPrtUL=    1 DoSpLW=F IThBeg=    0 IThEnd=   11 NThAct=   12.
 CoulSu:  IncTry=  1024 NBBP=              4 NTPThr=   100 NPartT=   12 Incr=           1 LDynOK=F GPUOK=F.
 CoulSu:  NPrtUS=  12 ThrOK=T IAlg=1 LenDen=          20 LWGrdD=           0 DoCopy=T ISkipM=0
          DoSpLW=F IThBeg=    0 IThEnd=   11.
 CoulSu:  IPart=    8 IPartR=    8 CPU=   -1 GPU=   -1.
 CoulSu:  IPart=    4 IPartR=    4 CPU=   -1 GPU=   -1.
 CoulSu:  IPart=    6 IPartR=    6 CPU=   -1 GPU=   -1.
 Enter PrismC:  IPart=  8 JobTyp=20 DoJE=T Cont=F.
 CoulSu:  IPart=    2 IPartR=    2 CPU=   -1 GPU=   -1.
 Enter PrismC:  IPart=  4 JobTyp=20 DoJE=T Cont=F.
 CoulSu:  IPart=   10 IPartR=   10 CPU=   -1 GPU=   -1.
 Enter PrismC:  IPart=  2 JobTyp=20 DoJE=T Cont=F.
 Enter PrismC:  IPart= 10 JobTyp=20 DoJE=T Cont=F.
 CoulSu:  IPart=    0 IPartR=    0 CPU=   -1 GPU=   -1.
 PrismC:  IPart=     8 DynPar=F LinDyn=F Incr=           1 UseFst=F UseS4=T ISplat=2.
 PrismC was handed   357913097 working-precision words and     2 shell-pairs
 PrismC:  IPart=     2 DynPar=F LinDyn=F Incr=           1 UseFst=F UseS4=T ISplat=2.
 Enter PrismC:  IPart=  6 JobTyp=20 DoJE=T Cont=F.
 PrismC:  IPart=    10 DynPar=F LinDyn=F Incr=           1 UseFst=F UseS4=T ISplat=2.
 Enter PrismC:  IPart=  0 JobTyp=20 DoJE=T Cont=F.
 PrismC:  IPart=     6 DynPar=F LinDyn=F Incr=           1 UseFst=F UseS4=T ISplat=2.
 CoulSu:  IPart=    7 IPartR=    7 CPU=   -1 GPU=   -1.
 PrismC:  IPart=     0 DynPar=F LinDyn=F Incr=           1 UseFst=F UseS4=T ISplat=2.
 CoulSu:  IPart=    5 IPartR=    5 CPU=   -1 GPU=   -1.
 PrismC:  IPart=     4 DynPar=F LinDyn=F Incr=           1 UseFst=F UseS4=T ISplat=2.
 CoulSu:  IPart=   11 IPartR=   11 CPU=   -1 GPU=   -1.
 Enter PrismC:  IPart=  7 JobTyp=20 DoJE=T Cont=F.
 PrismC was handed   357913097 working-precision words and     2 shell-pairs
 CoulSu:  IPart=    9 IPartR=    9 CPU=   -1 GPU=   -1.
 PrismC was handed   357913097 working-precision words and     2 shell-pairs
 Enter PrismC:  IPart=  5 JobTyp=20 DoJE=T Cont=F.
 CoulSu:  IPart=    1 IPartR=    1 CPU=   -1 GPU=   -1.
 PrismC was handed   357913097 working-precision words and     2 shell-pairs
 CoulSu:  IPart=    3 IPartR=    3 CPU=   -1 GPU=   -1.
 PrismC was handed   357913097 working-precision words and     2 shell-pairs
 Enter PrismC:  IPart=  9 JobTyp=20 DoJE=T Cont=F.
 Enter PrismC:  IPart= 11 JobTyp=20 DoJE=T Cont=F.
 Enter PrismC:  IPart=  3 JobTyp=20 DoJE=T Cont=F.
 PrismC:  IPart=     7 DynPar=F LinDyn=F Incr=           1 UseFst=F UseS4=T ISplat=2.
 PrismC:  IPart=    11 DynPar=F LinDyn=F Incr=           1 UseFst=F UseS4=T ISplat=2.
 PrismC was handed   357913097 working-precision words and     2 shell-pairs
 PrismC:  IPart=     9 DynPar=F LinDyn=F Incr=           1 UseFst=F UseS4=T ISplat=2.
 PrismC was handed   357913097 working-precision words and     2 shell-pairs
 PrismC was handed   357913097 working-precision words and     2 shell-pairs
 PrismC:  IPart=     3 DynPar=F LinDyn=F Incr=           1 UseFst=F UseS4=T ISplat=2.
 PrismC was handed   357913097 working-precision words and     2 shell-pairs
 PrismC was handed   357913097 working-precision words and     2 shell-pairs
 PrismC:  IPart=     5 DynPar=F LinDyn=F Incr=           1 UseFst=F UseS4=T ISplat=2.
 PrismC was handed   357913097 working-precision words and     2 shell-pairs
 Enter PrismC:  IPart=  1 JobTyp=20 DoJE=T Cont=F.
 PrismC:  IPart=     1 DynPar=F LinDyn=F Incr=           1 UseFst=F UseS4=T ISplat=2.
 PrismC was handed   357913097 working-precision words and     2 shell-pairs
 IPart=  8 NShTot=           0 NShNF=           0 NShFF=           0 MinMC=     178
           NShCPU=           0 NBCPU=           0 AvBCPU=         0.0
           NShGPU=           0 NBGPU=           0 AvBGPU=         0.0
 CoulSu-ThDecC:  IPartSL=    8    0 NPrtUSL=   12    1 IThBeg=    0 IThEnd=   11 CPU=   -1 GPU=   -1 NThAct=   12.
 IPart= 10 NShTot=           0 NShNF=           0 NShFF=           0 MinMC=     178
           NShCPU=           0 NBCPU=           0 AvBCPU=         0.0
           NShGPU=           0 NBGPU=           0 AvBGPU=         0.0
 IPart=  2 NShTot=           0 NShNF=           0 NShFF=           0 MinMC=     178
           NShCPU=           0 NBCPU=           0 AvBCPU=         0.0
           NShGPU=           0 NBGPU=           0 AvBGPU=         0.0
 IPart=  0 NShTot=           0 NShNF=           0 NShFF=           0 MinMC=     178
           NShCPU=           0 NBCPU=           0 AvBCPU=         0.0
           NShGPU=           0 NBGPU=           0 AvBGPU=         0.0
 IPart=  4 NShTot=           0 NShNF=           0 NShFF=           0 MinMC=     178
           NShCPU=           0 NBCPU=           0 AvBCPU=         0.0
           NShGPU=           0 NBGPU=           0 AvBGPU=         0.0
 IPart=  6 NShTot=           0 NShNF=           0 NShFF=           0 MinMC=     178
           NShCPU=           0 NBCPU=           0 AvBCPU=         0.0
           NShGPU=           0 NBGPU=           0 AvBGPU=         0.0
 IPart=  9 NShTot=           0 NShNF=           0 NShFF=           0 MinMC=     178
           NShCPU=           0 NBCPU=           0 AvBCPU=         0.0
           NShGPU=           0 NBGPU=           0 AvBGPU=         0.0
 IPart=  1 NShTot=           0 NShNF=           0 NShFF=           0 MinMC=     178
           NShCPU=           0 NBCPU=           0 AvBCPU=         0.0
           NShGPU=           0 NBGPU=           0 AvBGPU=         0.0
 IPart=  3 NShTot=           0 NShNF=           0 NShFF=           0 MinMC=     178
           NShCPU=           0 NBCPU=           0 AvBCPU=         0.0
[...]
      3  -0.430785D+00  0.507408D+00  0.430785D+00 -0.507408D+00
      4   0.385778D+00 -0.454395D+00 -0.385778D+00  0.454395D+00
 Transition densities among all excited states written to RWF  633
 Left alpha transition density to state          1
                 1             2             3             4 
      1   0.347417D-01  0.288834D-01  0.347417D-01  0.288834D-01
      2   0.567033D+00  0.471418D+00  0.567033D+00  0.471418D+00
      3  -0.347417D-01 -0.288834D-01 -0.347417D-01 -0.288834D-01
      4  -0.567033D+00 -0.471418D+00 -0.567033D+00 -0.471418D+00
 Left beta transition density to state          1
                 1             2             3             4 
      1   0.347417D-01  0.288834D-01  0.347417D-01  0.288834D-01
      2   0.567033D+00  0.471418D+00  0.567033D+00  0.471418D+00
      3  -0.347417D-01 -0.288834D-01 -0.347417D-01 -0.288834D-01
      4  -0.567033D+00 -0.471418D+00 -0.567033D+00 -0.471418D+00
 Left alpha transition density to state          2
                 1             2             3             4 
      1   0.250535D+00  0.208289D+00  0.250535D+00  0.208289D+00
      2  -0.224360D+00 -0.186527D+00 -0.224360D+00 -0.186527D+00
      3   0.250535D+00  0.208289D+00  0.250535D+00  0.208289D+00
      4  -0.224360D+00 -0.186527D+00 -0.224360D+00 -0.186527D+00
 Left beta transition density to state          2
                 1             2             3             4 
      1   0.250535D+00  0.208289D+00  0.250535D+00  0.208289D+00
      2  -0.224360D+00 -0.186527D+00 -0.224360D+00 -0.186527D+00
      3   0.250535D+00  0.208289D+00  0.250535D+00  0.208289D+00
      4  -0.224360D+00 -0.186527D+00 -0.224360D+00 -0.186527D+00
 Left alpha transition density to state          3
                 1             2             3             4 
      1  -0.367574D+00 -0.305592D+00 -0.367574D+00 -0.305592D+00
      2   0.432954D+00  0.359947D+00  0.432954D+00  0.359947D+00
      3   0.367574D+00  0.305592D+00  0.367574D+00  0.305592D+00
      4  -0.432954D+00 -0.359947D+00 -0.432954D+00 -0.359947D+00
 Left beta transition density to state          3
                 1             2             3             4 
      1  -0.367574D+00 -0.305592D+00 -0.367574D+00 -0.305592D+00
      2   0.432954D+00  0.359947D+00  0.432954D+00  0.359947D+00
      3   0.367574D+00  0.305592D+00  0.367574D+00  0.305592D+00
      4  -0.432954D+00 -0.359947D+00 -0.432954D+00 -0.359947D+00
 Ground to excited state transition electric dipole moments (Au):
       state          X           Y           Z        Dip. S.      Osc.
         1        -0.0000     -0.0000      1.4357      2.0612      0.7700
         2        -0.0000     -0.0000     -0.0000      0.0000      0.0000
         3        -0.0000     -0.0000     -0.3174      0.1007      0.1083
 Ground to excited state transition velocity dipole moments (Au):
       state          X           Y           Z        Dip. S.      Osc.
         1         0.0000      0.0000     -0.6188      0.3830      0.4556
         2         0.0000      0.0000      0.0000      0.0000      0.0000
         3         0.0000      0.0000      0.2300      0.0529      0.0219
 Ground to excited state transition magnetic dipole moments (Au):
       state          X           Y           Z
         1         0.0000      0.0000      0.0000
         2         0.0000      0.0000      0.0000
         3         0.0000      0.0000      0.0000
 Ground to excited state transition velocity quadrupole moments (Au):
       state          XX          YY          ZZ          XY          XZ          YZ
         1        -0.0000     -0.0000     -0.0000      0.0000      0.0000      0.0000
         2        -0.9005     -0.9005     -0.6972      0.0000      0.0000      0.0000
         3         0.0000      0.0000      0.0000      0.0000      0.0000      0.0000
 <0|del|b> * <b|rxdel|0> + <0|del|b> * <b|delr+rdel|0>
 Rotatory Strengths (R) in cgs (10**-40 erg-esu-cm/Gauss)
       state          XX          YY          ZZ    R(velocity)    E-M Angle
         1         0.0000      0.0000      0.0000      0.0000       90.00
         2         0.0000      0.0000      0.0000      0.0000       90.00
         3         0.0000      0.0000      0.0000      0.0000       90.00
 <0|del|b> * <b|rxdel|0> + <0|del|b> * <b|delr+rdel|0>
 Rotatory Strength tensors in cgs (10**-40 erg-esu-cm/Gauss)
 R = Rm + Rq, Rm = electric dipole-magnetic dipole component
 Rq = electric dipole-electric quadrupole component
 Total R(velocity) tensor for State=          1
                 1             2             3 
      1   0.000000D+00  0.000000D+00  0.000000D+00
      2   0.000000D+00  0.000000D+00  0.000000D+00
      3   0.000000D+00  0.000000D+00  0.000000D+00
   Rm(velocity) tensor for State=          1
                 1             2             3 
      1   0.000000D+00  0.000000D+00  0.000000D+00
      2   0.000000D+00  0.000000D+00  0.000000D+00
      3   0.000000D+00  0.000000D+00  0.000000D+00
   Rq(velocity) tensor for State=          1
                 1             2             3 
      1   0.000000D+00  0.000000D+00  0.000000D+00
      2   0.000000D+00  0.000000D+00  0.000000D+00
      3   0.000000D+00  0.000000D+00  0.000000D+00
 Total R(velocity) tensor for State=          2
                 1             2             3 
      1   0.000000D+00  0.000000D+00  0.000000D+00
      2   0.000000D+00  0.000000D+00  0.000000D+00
      3   0.000000D+00  0.000000D+00  0.000000D+00
   Rm(velocity) tensor for State=          2
                 1             2             3 
      1   0.000000D+00  0.000000D+00  0.000000D+00
      2   0.000000D+00  0.000000D+00  0.000000D+00
      3   0.000000D+00  0.000000D+00  0.000000D+00
   Rq(velocity) tensor for State=          2
                 1             2             3 
      1   0.000000D+00  0.000000D+00  0.000000D+00
      2   0.000000D+00  0.000000D+00  0.000000D+00
      3   0.000000D+00  0.000000D+00  0.000000D+00
 Total R(velocity) tensor for State=          3
                 1             2             3 
      1   0.000000D+00  0.000000D+00  0.000000D+00
      2   0.000000D+00  0.000000D+00  0.000000D+00
      3   0.000000D+00  0.000000D+00  0.000000D+00
   Rm(velocity) tensor for State=          3
                 1             2             3 
      1   0.000000D+00  0.000000D+00  0.000000D+00
      2   0.000000D+00  0.000000D+00  0.000000D+00
      3   0.000000D+00  0.000000D+00  0.000000D+00
   Rq(velocity) tensor for State=          3
                 1             2             3 
      1   0.000000D+00  0.000000D+00  0.000000D+00
      2   0.000000D+00  0.000000D+00  0.000000D+00
      3   0.000000D+00  0.000000D+00  0.000000D+00
 1/2[<0|r|b>*<b|rxdel|0> + (<0|rxdel|b>*<b|r|0>)*]
 Rotatory Strengths (R) in cgs (10**-40 erg-esu-cm/Gauss)
       state          XX          YY          ZZ     R(length)
         1         0.0000      0.0000     -0.0000     -0.0000
         2         0.0000      0.0000      0.0000      0.0000
         3         0.0000      0.0000      0.0000      0.0000
  1/2[<0|del|b>*<b|r|0> + (<0|r|b>*<b|del|0>)*] (Au)
       state          X           Y           Z        Dip. S.   Osc.(frdel)
         1        -0.0000     -0.0000     -0.8885      0.8885      0.5923
         2        -0.0000     -0.0000     -0.0000      0.0000      0.0000
         3        -0.0000     -0.0000     -0.0730      0.0730      0.0487

 Alpha transition density matrix between excited states   2 and   1
                 1             2             3             4 
      1   0.407161D-01 -0.364622D-01  0.407161D-01 -0.364622D-01
      2   0.664545D+00 -0.595115D+00  0.664545D+00 -0.595115D+00
      3  -0.407161D-01  0.364622D-01 -0.407161D-01  0.364622D-01
      4  -0.664545D+00  0.595115D+00 -0.664545D+00  0.595115D+00

 Beta transition density matrix between excited states   2 and   1
                 1             2             3             4 
      1   0.407161D-01 -0.364622D-01  0.407161D-01 -0.364622D-01
      2   0.664545D+00 -0.595115D+00  0.664545D+00 -0.595115D+00
      3  -0.407161D-01  0.364622D-01 -0.407161D-01  0.364622D-01
      4  -0.664545D+00  0.595115D+00 -0.664545D+00  0.595115D+00

 Alpha transition density matrix between excited states   3 and   1
                 1             2             3             4 
      1  -0.597369D-01  0.703621D-01  0.597369D-01 -0.703621D-01
      2  -0.974991D+00  0.114841D+01  0.974991D+00 -0.114841D+01
      3   0.597369D-01 -0.703621D-01 -0.597369D-01  0.703621D-01
      4   0.974991D+00 -0.114841D+01 -0.974991D+00  0.114841D+01

 Beta transition density matrix between excited states   3 and   1
                 1             2             3             4 
      1  -0.597369D-01  0.703621D-01  0.597369D-01 -0.703621D-01
      2  -0.974991D+00  0.114841D+01  0.974991D+00 -0.114841D+01
      3   0.597369D-01 -0.703621D-01 -0.597369D-01  0.703621D-01
      4   0.974991D+00 -0.114841D+01 -0.974991D+00  0.114841D+01

 Alpha transition density matrix between excited states   3 and   2
                 1             2             3             4 
      1  -0.430785D+00  0.507408D+00  0.430785D+00 -0.507408D+00
      2   0.385778D+00 -0.454395D+00 -0.385778D+00  0.454395D+00
      3  -0.430785D+00  0.507408D+00  0.430785D+00 -0.507408D+00
      4   0.385778D+00 -0.454395D+00 -0.385778D+00  0.454395D+00

 Beta transition density matrix between excited states   3 and   2
                 1             2             3             4 
      1  -0.430785D+00  0.507408D+00  0.430785D+00 -0.507408D+00
      2   0.385778D+00 -0.454395D+00 -0.385778D+00  0.454395D+00
      3  -0.430785D+00  0.507408D+00  0.430785D+00 -0.507408D+00
      4   0.385778D+00 -0.454395D+00 -0.385778D+00  0.454395D+00
 Excited to excited state transition electric dipole moments (Au):
     state I   state J         X           Y           Z        Dip. S.      Osc.
         2        1        -0.0000     -0.0000     -1.0225      1.0456      0.3464
         3        1        -0.0000     -0.0000     -0.0000      0.0000      0.0000
         3        2        -0.0000     -0.0000     -0.9402      0.8841      0.3272
 Excited to excited state transition velocity dipole moments (Au):
     state I   state J         X           Y           Z        Dip. S.      Osc.
         2        1        -0.0000     -0.0000      0.0888      0.0079      0.0106
         3        1        -0.0000     -0.0000      0.0000      0.0000      0.0000
         3        2        -0.0000     -0.0000      0.4996      0.2496      0.2997
 Excited to excited state transition magnetic dipole moments (Au):
     state I   state J         X           Y           Z
         2        1        -0.0000     -0.0000     -0.0000
         3        1        -0.0000     -0.0000     -0.0000
         3        2        -0.0000     -0.0000     -0.0000

 Excitation energies and oscillator strengths:
 
 Excited state symmetry could not be determined.
 Excited State   1:      Singlet-?Sym   15.2476 eV   81.31 nm  f=0.7700  <S**2>=0.000
       1 ->  2         0.70703
       1 ->  4         0.01031
 This state for optimization and/or second-order correction.
 Total Energy, E(CIS/TDA) = -0.566416163392    
 Copying the excited state density for this state as the 1-particle RhoCI density.
    CIS Density (Total): 
                1             2             3             4 
      1  0.118179D+00
      2  0.273167D+00  0.308199D+01
      3  0.955944D-01 -0.954416D-01  0.118179D+00
      4 -0.954416D-01 -0.293423D+01  0.273167D+00  0.308199D+01
 
 Excited state symmetry could not be determined.
 Excited State   2:      Singlet-?Sym   28.7709 eV   43.09 nm  f=0.0000  <S**2>=0.000
       1 ->  3         0.70711
 
 Excited state symmetry could not be determined.
 Excited State   3:      Singlet-?Sym   43.8775 eV   28.26 nm  f=0.1083  <S**2>=0.000
       1 ->  2        -0.01031
       1 ->  4         0.70703
 SavETr:  write IOETrn=   770 NScale= 10 NData=  16 NLR=1 NState=    3 LETran=      64.
 Leave Link  914 at Mon Jun 26 08:57:20 2023, MaxMem=  4294967296 cpu:               0.7 elap:               0.1
 (Enter /opt/gaussian/gdv-20180628-i14+/gdv/l601.exe)
 GetPMM: IRwPM=  824 LRwPM=    0 LPMAll=    2
 GetPCM: File not found, return IValue=0.
 Copying SCF densities to generalized density rwf, IOpCl= 0 IROHF=0.

 **********************************************************************

            Population analysis using the SCF Density.

 **********************************************************************

 Alpha  occ. eigenvalues --   -0.59582
 Alpha virt. eigenvalues --    0.23847   0.77472   1.40441
     Density Matrix:
                           1         2         3         4
   1 1   H  1S          0.21377
   2        2S          0.17773   0.14776
   3 2   H  1S          0.21377   0.17773   0.21377
   4        2S          0.17773   0.14776   0.17773   0.14776
          Condensed to atoms (all electrons):
               1          2
     1  H    0.595521   0.404479
     2  H    0.404479   0.595521
 Mulliken charges:
               1
     1  H   -0.000000
     2  H    0.000000
 Sum of Mulliken charges =  -0.00000
 Mulliken charges with hydrogens summed into heavy atoms:
               1
 DipInt: DoE/N= T F RetVal/Mat= T F Init=T NMatP=  1 IDeriv=0 Min/MaxMlt=  0  4
 Entering OneElI...
 OneElI was handed  4294967104 working-precision words.
 Multipole integrals L=0 to 4 MinM= 0 MaxM= 0.
 Requested accuracy = 0.1000D-12
 ShPair: Thresh= 1.00D-13 NBox=     0 BxSize= 0.00D+00 RnKept= 1.40D+00
         NSMCal=                   10 NSMKep=                  10
 PrmmSu-InSpLW:  IPartL=    0 NPrtUS=    1 NPrtUL=    1 DoSpLW=F IThBeg=    0 IThEnd=    0 NThAct=    1.
 PrSmSu:  IncTry=   512 NBBP=             10 NTPThr=   100 NPartT=    1 Incr=           1 LDynOK=F GPUOK=F.
 PrsmSu:  NPrtUS=   1 ThrOK=F IAlg=2 LenDen=           0 ISkipM=0 DoSpLW=F IThBeg=    0 IThEnd=    0.
 Prism:   IPart=     0 DynPar=F LinDyn=F Incr=           1.
 PRISM was handed  4294965428 working-precision words and    10 shell-pairs
 IPart=  0 NShTot=          10 NBatch=           3 AvBLen=         3.3
 PrsmSu-ThDecC:  IPartSL=    0    0 NPrtUSL=    1    1 IThBeg=    0 IThEnd=    0 CPU=   -1 GPU=   -1 NThAct=    1.
 PrSmSu:  NxtVal=              2.
 Electronic moments (au):
         -2.00000000         -0.00000000         -0.00000000          0.00000000
         -1.51893245         -1.51893245         -2.18131677         -0.00000000
         -0.00000000         -0.00000000         -0.00000000         -0.00000000
          0.00000000         -0.00000000         -0.00000000          0.00000000
         -0.00000000         -0.00000000          0.00000000         -0.00000000
         -5.02823857         -5.02823857         -8.07047500         -0.00000000
         -0.00000000         -0.00000000         -0.00000000         -0.00000000
         -0.00000000         -1.67607952         -2.13273690         -2.13273690
         -0.00000000         -0.00000000         -0.00000000
 Electronic spatial extent (au):  <R**2>=              5.2192
 DipInt: DoE/N= F T RetVal/Mat= T F Init=T NMatP=  1 IDeriv=0 Min/MaxMlt=  0  4
 Nuclear    moments (au):
          2.00000000          0.00000000          0.00000000          0.00000000
          0.00000000          0.00000000          0.97775755          0.00000000
          0.00000000          0.00000000          0.00000000          0.00000000
          0.00000000          0.00000000          0.00000000          0.00000000
          0.00000000          0.00000000          0.00000000          0.00000000
          0.00000000          0.00000000          0.47800491          0.00000000
          0.00000000          0.00000000          0.00000000          0.00000000
          0.00000000          0.00000000          0.00000000          0.00000000
          0.00000000          0.00000000          0.00000000
 Total      moments (au):
         -0.00000000          0.00000000          0.00000000          0.00000000
         -1.51893245         -1.51893245         -1.20355922          0.00000000
          0.00000000          0.00000000          0.00000000          0.00000000
          0.00000000          0.00000000          0.00000000          0.00000000
          0.00000000          0.00000000          0.00000000          0.00000000
         -5.02823857         -5.02823857         -7.59247009          0.00000000
          0.00000000          0.00000000          0.00000000          0.00000000
          0.00000000         -1.67607952         -2.13273690         -2.13273690
          0.00000000          0.00000000          0.00000000
 Charge=             -0.0000 electrons
 Dipole moment (field-independent basis, Debye):
    X=              0.0000    Y=              0.0000    Z=              0.0000  Tot=              0.0000
 Quadrupole moment (field-independent basis, Debye-Ang):
   XX=             -2.0430   YY=             -2.0430   ZZ=             -1.6188
   XY=              0.0000   XZ=              0.0000   YZ=              0.0000
 Traceless Quadrupole moment (field-independent basis, Debye-Ang):
   XX=             -0.1414   YY=             -0.1414   ZZ=              0.2828
   XY=              0.0000   XZ=              0.0000   YZ=              0.0000
 Octapole moment (field-independent basis, Debye-Ang**2):
  XXX=              0.0000  YYY=              0.0000  ZZZ=              0.0000  XYY=              0.0000
  XXY=              0.0000  XXZ=              0.0000  XZZ=              0.0000  YZZ=              0.0000
  YYZ=              0.0000  XYZ=              0.0000
 Hexadecapole moment (field-independent basis, Debye-Ang**3):
 XXXX=             -1.8939 YYYY=             -1.8939 ZZZZ=             -2.8597 XXXY=              0.0000
 XXXZ=              0.0000 YYYX=              0.0000 YYYZ=              0.0000 ZZZX=              0.0000
 ZZZY=              0.0000 XXYY=             -0.6313 XXZZ=             -0.8033 YYZZ=             -0.8033
 XXYZ=              0.0000 YYXZ=              0.0000 ZZXY=              0.0000
 N-N= 7.151043390811D-01 E-N=-3.617320210687D+00  KE= 1.125235528036D+00
 Leave Link  601 at Mon Jun 26 08:57:20 2023, MaxMem=  4294967296 cpu:               0.2 elap:               0.0
 (Enter /opt/gaussian/gdv-20180628-i14+/gdv/l9999.exe)
 Electronic transition elements 
                 1             2             3 
      1  -0.566416D+00 -0.694450D-01  0.485711D+00
      2   0.000000D+00  0.000000D+00  0.000000D+00
      3   0.000000D+00  0.000000D+00  0.000000D+00
      4   0.143570D+01  0.000000D+00 -0.317396D+00
      5   0.000000D+00  0.000000D+00  0.000000D+00
      6   0.000000D+00  0.000000D+00  0.000000D+00
      7  -0.618832D+00  0.000000D+00  0.229972D+00
      8   0.000000D+00  0.000000D+00  0.000000D+00
      9   0.000000D+00  0.000000D+00  0.000000D+00
     10   0.000000D+00  0.000000D+00  0.000000D+00
     11   0.000000D+00 -0.900491D+00  0.000000D+00
     12   0.000000D+00 -0.900491D+00  0.000000D+00
     13   0.000000D+00 -0.697240D+00  0.000000D+00
     14   0.000000D+00  0.000000D+00  0.000000D+00
     15   0.000000D+00  0.000000D+00  0.000000D+00
     16   0.000000D+00  0.000000D+00  0.000000D+00

 Test job not archived.
 1\1\GINC-NODE14\SP\RCIS-FC\6-31G\H2\KRANKA\26-Jun-2023\0\\#p hf/6-31g 
 CIS(NStates=30,Root=1,AllTransitionDensities,Singlets) nosymm IOp(3/33
 =3,3/36=1,4/33=3,5/33=3,5/72=-3,6/8=1,6/33=3,8/10=90,9/33=3,9/40=3)\\C
 IS/6-31G, S0 state single point, no-pert. calc. (all density matrices 
 printed)\\0,1\H,0,0.,0.,-0.37\H,0,0.,0.,0.37\\Version=ES64L-GDVRevI.14
 +\HF=-1.1267553\RMSD=9.177e-10\PG=D*H [C*(H1.H1)]\\@


 PATIENCE IS THE ABILITY TO IDLE YOUR MOTOR WHEN
 YOU FEEL LIKE STRIPPING YOUR GEARS.
 Job cpu time:       0 days  0 hours  0 minutes  7.5 seconds.
 Elapsed time:       0 days  0 hours  0 minutes  1.0 seconds.
 File lengths (MBytes):  RWF=      6 Int=      0 D2E=      0 Chk=      2 Scr=      1
 Normal termination of Gaussian DV at Mon Jun 26 08:57:20 2023.
