************************************************************
This is node15.cluster of cluster Pinconning.
Date: Tue Jun 27 13:38:34 PDT 2023
************************************************************
 Set GAUSS_MDEF to "32GB".
 Set GAUSS_PDEF to "12".
 Entering Gaussian System, Link 0=gdv
 Initial command:
 /opt/gaussian/gdv-20180628-i14+/gdv/l1.exe "/tmp/836136.1.allnodes.q/Gau-14310.inp" -scrdir="/tmp/836136.1.allnodes.q/"
 Default is to use a total of  12 processors:
                               12 via shared-memory
                                1 via Linda
 Entering Link 1 = /opt/gaussian/gdv-20180628-i14+/gdv/l1.exe PID=     14311.
  
 Copyright (c) 1988-2018, Gaussian, Inc.  All Rights Reserved.
  
 This is the private, development version of
 the Gaussian(R) DV system of programs. It is based on
 the Gaussian(R) 16 system (copyright 2016, Gaussian, Inc.),
 the Gaussian(R) 09 system (copyright 2009, Gaussian, Inc.),
 the Gaussian(R) 03 system (copyright 2003, Gaussian, Inc.),
 the Gaussian(R) 98 system (copyright 1998, Gaussian, Inc.),
 the Gaussian(R) 94 system (copyright 1995, Gaussian, Inc.),
 the Gaussian 92(TM) system (copyright 1992, Gaussian, Inc.),
 the Gaussian 90(TM) system (copyright 1990, Gaussian, Inc.),
 the Gaussian 88(TM) system (copyright 1988, Gaussian, Inc.),
 the Gaussian 86(TM) system (copyright 1986, Carnegie Mellon
 University), and the Gaussian 82(TM) system (copyright 1983,
 Carnegie Mellon University). Gaussian is a federally registered
 trademark of Gaussian, Inc.
  
 This software contains proprietary and confidential information,
 including trade secrets, belonging to Gaussian, Inc.
  
 This software is provided under written license and may be
 used, copied, transmitted, or stored only in accord with that
 written license.
  
 The following legend is applicable only to US Government
 contracts under FAR:
  
                    RESTRICTED RIGHTS LEGEND
  
 Use, reproduction and disclosure by the US Government is
 subject to restrictions as set forth in subparagraphs (a)
 and (c) of the Commercial Computer Software - Restricted
 Rights clause in FAR 52.227-19.
  
 Gaussian, Inc.
 340 Quinnipiac St., Bldg. 40, Wallingford CT 06492
  
  
 ---------------------------------------------------------------
 Warning -- This program may not be used in any manner that
 competes with the business of Gaussian, Inc. or will provide
 assistance to any competitor of Gaussian, Inc.  The licensee
 of this program is prohibited from giving any competitor of
 Gaussian, Inc. access to this program.  By using this program,
 the user acknowledges that Gaussian, Inc. is engaged in the
 business of creating and licensing software in the field of
 computational chemistry and represents and warrants to the
 licensee that it is not a competitor of Gaussian, Inc. and that
 it will not use this program in any manner prohibited above.
 ---------------------------------------------------------------
  

 Cite this work as:
 Gaussian Development Version, Revision I.14+,
 M. J. Frisch, G. W. Trucks, H. B. Schlegel, G. E. Scuseria, 
 M. A. Robb, J. R. Cheeseman, G. Scalmani, V. Barone, 
 G. A. Petersson, H. Nakatsuji, X. Li, M. Caricato, A. V. Marenich, 
 J. Bloino, B. G. Janesko, R. Gomperts, B. Mennucci, H. P. Hratchian, 
 J. V. Ortiz, A. F. Izmaylov, J. L. Sonnenberg, D. Williams-Young, 
 F. Ding, F. Lipparini, F. Egidi, J. Goings, B. Peng, A. Petrone, 
 T. Henderson, D. Ranasinghe, V. G. Zakrzewski, J. Gao, N. Rega, 
 G. Zheng, W. Liang, M. Hada, M. Ehara, K. Toyota, R. Fukuda, 
 J. Hasegawa, M. Ishida, T. Nakajima, Y. Honda, O. Kitao, H. Nakai, 
 T. Vreven, K. Throssell, J. A. Montgomery, Jr., J. E. Peralta, 
 F. Ogliaro, M. J. Bearpark, J. J. Heyd, E. N. Brothers, K. N. Kudin, 
 V. N. Staroverov, T. A. Keith, R. Kobayashi, J. Normand, 
 K. Raghavachari, A. P. Rendell, J. C. Burant, S. S. Iyengar, 
 J. Tomasi, M. Cossi, J. M. Millam, M. Klene, C. Adamo, R. Cammi, 
 J. W. Ochterski, R. L. Martin, K. Morokuma, O. Farkas, 
 J. B. Foresman, and D. J. Fox, Gaussian, Inc., Wallingford CT, 2018.
 
 *******************************************
 Gaussian DV:  ES64L-GDVRevI.14+ 23-Jun-2018
                 27-Jun-2023 
 *******************************************
 %chk=cis-30roots_s0_heh+_6-31g.chk
 ----------------------------------------------------------------------
 #p hf/6-31g CIS(NStates=30,Root=1,AllTransitionDensities,Singlets) nos
 ymm IOp(3/33=3,3/36=1,4/33=3,5/33=3,5/72=-3,6/8=1,6/33=3,8/10=90,9/33=
 3,9/40=3)
 ----------------------------------------------------------------------
 1/38=1,172=1/1;
 2/12=2,15=1,17=6,18=5,40=1/2;
 3/5=1,6=6,11=9,25=1,30=1,33=3,36=1/1,2,3,8;
 4/33=3/1;
 5/5=2,33=3,38=5,72=-3/2;
 8/6=1,10=90,107=1,108=30/1;
 9/8=1,33=3,40=3,41=30,42=1,44=3,48=1/14;
 6/7=2,8=1,9=2,10=2,33=3/1;
 99/5=1,9=1/99;
 Leave Link    1 at Tue Jun 27 13:38:34 2023, MaxMem=           0 cpu:               0.8 elap:               0.2
 (Enter /opt/gaussian/gdv-20180628-i14+/gdv/l101.exe)
 ---------------
 CIS calculation
 ---------------
 Symbolic Z-matrix:
 Charge =  1 Multiplicity = 1
 H                     0.        0.       -0.386 
 He                    0.        0.        0.386 
 
 ITRead=  0  0
 MicOpt= -1 -1
 NAtoms=      2 NQM=        2 NQMF=       0 NMMI=      0 NMMIF=      0
                NMic=       0 NMicF=      0.
                    Isotopes and Nuclear Properties:
 (Nuclear quadrupole moments (NQMom) in fm**2, nuclear magnetic moments (NMagM)
  in nuclear magnetons)

  Atom         1           2
 IAtWgt=           1           4
 AtmWgt=   1.0078250   4.0026033
 NucSpn=           1           0
 AtZEff=  -0.0000000  -0.0000000
 NQMom=    0.0000000   0.0000000
 NMagM=    2.7928460   0.0000000
 AtZNuc=   1.0000000   2.0000000
 Leave Link  101 at Tue Jun 27 13:38:35 2023, MaxMem=  4294967296 cpu:               1.4 elap:               0.3
 (Enter /opt/gaussian/gdv-20180628-i14+/gdv/l202.exe)
                          Input orientation:                          
 ---------------------------------------------------------------------
 Center     Atomic      Atomic             Coordinates (Angstroms)
 Number     Number       Type             X           Y           Z
 ---------------------------------------------------------------------
      1          1           0        0.000000    0.000000   -0.386000
      2          2           0        0.000000    0.000000    0.386000
 ---------------------------------------------------------------------
 Symmetry turned off by external request.
 Stoichiometry    HHe(1+)
 Framework group  C*V[C*(HHe)]
 Deg. of freedom     1
 Full point group                 C*V     NOp   4
 Rotational constants (GHZ):           0.0000000        1053.2458648        1053.2458648
 Leave Link  202 at Tue Jun 27 13:38:35 2023, MaxMem=  4294967296 cpu:               1.2 elap:               0.3
 (Enter /opt/gaussian/gdv-20180628-i14+/gdv/l301.exe)
 Standard basis: 6-31G (6D, 7F)
                         Coordinates in L301:                         
 ---------------------------------------------------------------------
 Center     Atomic      Atomic             Coordinates (Angstroms)
 Number     Number       Type             X           Y           Z
 ---------------------------------------------------------------------
      1          1           0        0.000000    0.000000   -0.386000
      2          2           0        0.000000    0.000000    0.386000
 ---------------------------------------------------------------------
 FixB: optimizing general contractions.
 Ernie: Thresh=  0.10000D-02 Tol=  0.10000D-05 Strict=F.
 IA=     1 ShT= 0 ShC= 0 NL=   2 NS=   1.
         I=   1 JX=   1 NP=   3
         I=   2 JX=   2 NP=   1
 IA=     1 L=0 SC=0 ISt=    0 NBk=    0 NP=    0 IndPr=    0.
 IA=     2 ShT= 0 ShC= 0 NL=   2 NS=   1.
         I=   1 JX=   3 NP=   3
         I=   2 JX=   4 NP=   1
 IA=     2 L=0 SC=0 ISt=    0 NBk=    0 NP=    0 IndPr=    0.
 Electric field displacement of shell     1 is  0.00D+00
 Electric field displacement of shell     2 is  0.00D+00
 Electric field displacement of shell     3 is  0.00D+00
 Electric field displacement of shell     4 is  0.00D+00
 LdAtmC:  AtmChg=     1.000000     2.000000
 AtZEff=     -1.0000000     -2.0000000
     4 basis functions,     8 primitive gaussians,     4 cartesian basis functions
     1 alpha electrons        1 beta electrons
       nuclear repulsion energy         1.3709254169 Hartrees.
 IS=     1 IAt=     1 ISR=     1 T=0 IP=      1 IndIP=      1 IndIPD=      0 C=  2.149354D-01  0.000000D+00                             NZ=T
 IS=     1 IAt=     1 ISR=     1 T=0 IP=      2 IndIP=      2 IndIPD=      1 C=  3.645712D-01  0.000000D+00                             NZ=T
 IS=     1 IAt=     1 ISR=     1 T=0 IP=      3 IndIP=      3 IndIPD=      2 C=  4.150514D-01  0.000000D+00                             NZ=T
 IS=     2 IAt=     1 ISR=     2 T=0 IP=      1 IndIP=      4 IndIPD=      0 C=  1.813806D-01  0.000000D+00                             NZ=T
 IS=     3 IAt=     2 ISR=     1 T=0 IP=      1 IndIP=      5 IndIPD=      0 C=  4.414856D-01  0.000000D+00                             NZ=T
 IS=     3 IAt=     2 ISR=     1 T=0 IP=      2 IndIP=      6 IndIPD=      1 C=  6.938966D-01  0.000000D+00                             NZ=T
 IS=     3 IAt=     2 ISR=     1 T=0 IP=      3 IndIP=      7 IndIPD=      2 C=  6.649918D-01  0.000000D+00                             NZ=T
 IS=     4 IAt=     2 ISR=     2 T=0 IP=      1 IndIP=      8 IndIPD=      0 C=  2.874306D-01  0.000000D+00                             NZ=T
 IExCor=    0 DFT=F Ex=HF Corr=None ExCW=0 ScaHFX=  1.000000
 ScaDFX=  1.000000  1.000000  1.000000  1.000000
 IRadAn=      5 IRanWt=     -1 IRanGd=            0 ICorTp=0 IEmpDi=  4
 NAtoms=    2 NActive=    2 NUniq=    2 SFac= 1.00D+00 NAtFMM=   60 NAOKFM=F Big=F
 Integral buffers will be    131072 words long.
 Raffenetti 1 integral format.
 Two-electron integral symmetry is turned off.
 Pair potential:
 Leave Link  301 at Tue Jun 27 13:38:35 2023, MaxMem=  4294967296 cpu:               1.0 elap:               0.3
 (Enter /opt/gaussian/gdv-20180628-i14+/gdv/l302.exe)
 GetPMM: IRwPM=  824 LRwPM=    0 LPMAll=    2
 GetPCM: File not found, return IValue=0.
 NPDir=0 NMtPBC=     1 NCelOv=     1 NCel=       1 NClECP=     1 NCelD=      1
         NCelK=      1 NCelE2=     1 NClLst=     1 CellRange=     0.0.
 One-electron integrals computed using PRISM.
 Entering OneElI...
 OneElI was handed  4294967235 working-precision words.
 Calculate overlap and kinetic energy integrals
    NBasis =   4  MinDer = 0  MaxDer = 0
 Requested accuracy = 0.1000D-12
 ShPair: Thresh= 1.00D-13 NBox=     0 BxSize= 0.00D+00 RnKept= 1.46D+00
         NSMCal=                   10 NSMKep=                  10
 PrmmSu-InSpLW:  IPartL=    0 NPrtUS=   12 NPrtUL=    1 DoSpLW=F IThBeg=    0 IThEnd=   11 NThAct=   12.
 PrSmSu:  IncTry=   512 NBBP=             10 NTPThr=   100 NPartT=   12 Incr=           1 LDynOK=F GPUOK=F.
 PrsmSu:  NPrtUS=  12 ThrOK=T IAlg=1 LenDen=           0 ISkipM=0 DoSpLW=F IThBeg=    0 IThEnd=   11.
 Prism:   IPart=     0 DynPar=F LinDyn=F Incr=           1.
 PRISM was handed   357912973 working-precision words and    10 shell-pairs
 PRISM was handed   357912973 working-precision words and    10 shell-pairs
 PRISM was handed   357912973 working-precision words and    10 shell-pairs
 PRISM was handed   357912973 working-precision words and    10 shell-pairs
 PRISM was handed   357912973 working-precision words and    10 shell-pairs
 PRISM was handed   357912973 working-precision words and    10 shell-pairs
 PRISM was handed   357912973 working-precision words and    10 shell-pairs
 PRISM was handed   357912973 working-precision words and    10 shell-pairs
 PRISM was handed   357912973 working-precision words and    10 shell-pairs
 IPart=  9 NShTot=           0 NBatch=           0 AvBLen=         0.0
 IPart=  4 NShTot=           0 NBatch=           0 AvBLen=         0.0
 PrsmSu-ThDecC:  IPartSL=    9    0 NPrtUSL=   12    1 IThBeg=    0 IThEnd=   11 CPU=   -1 GPU=   -1 NThAct=   12.
 PrsmSu-ThDecC:  IPartSL=    4    0 NPrtUSL=   12    1 IThBeg=    0 IThEnd=   11 CPU=   -1 GPU=   -1 NThAct=   11.
 IPart= 10 NShTot=           0 NBatch=           0 AvBLen=         0.0
 IPart= 11 NShTot=           0 NBatch=           0 AvBLen=         0.0
 IPart=  8 NShTot=           0 NBatch=           0 AvBLen=         0.0
 PrsmSu-ThDecC:  IPartSL=   10    0 NPrtUSL=   12    1 IThBeg=    0 IThEnd=   11 CPU=   -1 GPU=   -1 NThAct=   10.
 PrsmSu-ThDecC:  IPartSL=   11    0 NPrtUSL=   12    1 IThBeg=    0 IThEnd=   11 CPU=   -1 GPU=   -1 NThAct=    9.
 PrsmSu-ThDecC:  IPartSL=    8    0 NPrtUSL=   12    1 IThBeg=    0 IThEnd=   11 CPU=   -1 GPU=   -1 NThAct=    8.
 IPart=  2 NShTot=           3 NBatch=           3 AvBLen=         1.0
 PrsmSu-ThDecC:  IPartSL=    2    0 NPrtUSL=   12    1 IThBeg=    0 IThEnd=   11 CPU=   -1 GPU=   -1 NThAct=    7.
 IPart=  0 NShTot=           3 NBatch=           3 AvBLen=         1.0
 PrsmSu-ThDecC:  IPartSL=    0    0 NPrtUSL=   12    1 IThBeg=    0 IThEnd=   11 CPU=   -1 GPU=   -1 NThAct=    6.
 IPart=  5 NShTot=           0 NBatch=           0 AvBLen=         0.0
 PrsmSu-ThDecC:  IPartSL=    5    0 NPrtUSL=   12    1 IThBeg=    0 IThEnd=   11 CPU=   -1 GPU=   -1 NThAct=    5.
 IPart=  7 NShTot=           0 NBatch=           0 AvBLen=         0.0
 PrsmSu-ThDecC:  IPartSL=    7    0 NPrtUSL=   12    1 IThBeg=    0 IThEnd=   11 CPU=   -1 GPU=   -1 NThAct=    4.
 PRISM was handed   357912973 working-precision words and    10 shell-pairs
 IPart=  1 NShTot=           3 NBatch=           3 AvBLen=         1.0
 PrsmSu-ThDecC:  IPartSL=    1    0 NPrtUSL=   12    1 IThBeg=    0 IThEnd=   11 CPU=   -1 GPU=   -1 NThAct=    3.
 PRISM was handed   357912973 working-precision words and    10 shell-pairs
 IPart=  6 NShTot=           0 NBatch=           0 AvBLen=         0.0
 PrsmSu-ThDecC:  IPartSL=    6    0 NPrtUSL=   12    1 IThBeg=    0 IThEnd=   11 CPU=   -1 GPU=   -1 NThAct=    2.
 PRISM was handed   357912973 working-precision words and    10 shell-pairs
 IPart=  3 NShTot=           1 NBatch=           1 AvBLen=         1.0
 PrsmSu-ThDecC:  IPartSL=    3    0 NPrtUSL=   12    1 IThBeg=    0 IThEnd=   11 CPU=   -1 GPU=   -1 NThAct=    1.
 PrSmSu:  NxtVal=             13.
 *** Overlap *** 
                1             2             3             4 
      1  0.100000D+01
      2  0.658292D+00  0.100000D+01
      3  0.300303D+00  0.334248D+00  0.100000D+01
      4  0.536094D+00  0.746564D+00  0.634148D+00  0.100000D+01
 *** Kinetic Energy *** 
                1             2             3             4 
      1  0.139568D+01
      2  0.259735D+00  0.241917D+00
      3  0.105657D+00  0.115030D+00  0.292565D+01
      4  0.236735D+00  0.199566D+00  0.467227D+00  0.446946D+00
 Entering OneElI...
 OneElI was handed  4294967235 working-precision words.
 Calculate potential energy integrals
    NBasis =   4  MinDer = 0  MaxDer = 0
 Requested accuracy = 0.1000D-12
 ShPair: Thresh= 1.00D-13 NBox=     0 BxSize= 0.00D+00 RnKept= 1.46D+00
         NSMCal=                   10 NSMKep=                  10
 PrmmSu-InSpLW:  IPartL=    0 NPrtUS=   12 NPrtUL=    1 DoSpLW=F IThBeg=    0 IThEnd=   11 NThAct=   12.
 PrSmSu:  IncTry=   512 NBBP=             20 NTPThr=   100 NPartT=   12 Incr=           1 LDynOK=F GPUOK=F.
 PrsmSu:  NPrtUS=  12 ThrOK=T IAlg=1 LenDen=           0 ISkipM=0 DoSpLW=F IThBeg=    0 IThEnd=   11.
 Prism:   IPart=     0 DynPar=F LinDyn=F Incr=           1.
 PRISM was handed   357912968 working-precision words and    10 shell-pairs
 PRISM was handed   357912968 working-precision words and    10 shell-pairs
 PRISM was handed   357912968 working-precision words and    10 shell-pairs
 PRISM was handed   357912968 working-precision words and    10 shell-pairs
 PRISM was handed   357912968 working-precision words and    10 shell-pairs
 PRISM was handed   357912968 working-precision words and    10 shell-pairs
 PRISM was handed   357912968 working-precision words and    10 shell-pairs
 IPart=  5 NShTot=           0 NBatch=           0 AvBLen=         0.0
 PrsmSu-ThDecC:  IPartSL=    5    0 NPrtUSL=   12    1 IThBeg=    0 IThEnd=   11 CPU=   -1 GPU=   -1 NThAct=   12.
 IPart=  4 NShTot=           0 NBatch=           0 AvBLen=         0.0
 PrsmSu-ThDecC:  IPartSL=    4    0 NPrtUSL=   12    1 IThBeg=    0 IThEnd=   11 CPU=   -1 GPU=   -1 NThAct=   11.
 PRISM was handed   357912968 working-precision words and    10 shell-pairs
 PRISM was handed   357912968 working-precision words and    10 shell-pairs
 PRISM was handed   357912968 working-precision words and    10 shell-pairs
 PRISM was handed   357912968 working-precision words and    10 shell-pairs
 PRISM was handed   357912968 working-precision words and    10 shell-pairs
 IPart=  8 NShTot=           0 NBatch=           0 AvBLen=         0.0
 PrsmSu-ThDecC:  IPartSL=    8    0 NPrtUSL=   12    1 IThBeg=    0 IThEnd=   11 CPU=   -1 GPU=   -1 NThAct=   10.
 IPart= 11 NShTot=           0 NBatch=           0 AvBLen=         0.0
 PrsmSu-ThDecC:  IPartSL=   11    0 NPrtUSL=   12    1 IThBeg=    0 IThEnd=   11 CPU=   -1 GPU=   -1 NThAct=    9.
 IPart=  9 NShTot=           0 NBatch=           0 AvBLen=         0.0
 PrsmSu-ThDecC:  IPartSL=    9    0 NPrtUSL=   12    1 IThBeg=    0 IThEnd=   11 CPU=   -1 GPU=   -1 NThAct=    8.
 IPart=  3 NShTot=           2 NBatch=           1 AvBLen=         2.0
 PrsmSu-ThDecC:  IPartSL=    3    0 NPrtUSL=   12    1 IThBeg=    0 IThEnd=   11 CPU=   -1 GPU=   -1 NThAct=    7.
 IPart=  6 NShTot=           0 NBatch=           0 AvBLen=         0.0
 PrsmSu-ThDecC:  IPartSL=    6    0 NPrtUSL=   12    1 IThBeg=    0 IThEnd=   11 CPU=   -1 GPU=   -1 NThAct=    6.
 IPart=  7 NShTot=           0 NBatch=           0 AvBLen=         0.0
 PrsmSu-ThDecC:  IPartSL=    7    0 NPrtUSL=   12    1 IThBeg=    0 IThEnd=   11 CPU=   -1 GPU=   -1 NThAct=    5.
 IPart= 10 NShTot=           0 NBatch=           0 AvBLen=         0.0
 PrsmSu-ThDecC:  IPartSL=   10    0 NPrtUSL=   12    1 IThBeg=    0 IThEnd=   11 CPU=   -1 GPU=   -1 NThAct=    4.
 IPart=  0 NShTot=           6 NBatch=           3 AvBLen=         2.0
 PrsmSu-ThDecC:  IPartSL=    0    0 NPrtUSL=   12    1 IThBeg=    0 IThEnd=   11 CPU=   -1 GPU=   -1 NThAct=    3.
 IPart=  1 NShTot=           6 NBatch=           3 AvBLen=         2.0
 PrsmSu-ThDecC:  IPartSL=    1    0 NPrtUSL=   12    1 IThBeg=    0 IThEnd=   11 CPU=   -1 GPU=   -1 NThAct=    2.
 IPart=  2 NShTot=           6 NBatch=           3 AvBLen=         2.0
 PrsmSu-ThDecC:  IPartSL=    2    0 NPrtUSL=   12    1 IThBeg=    0 IThEnd=   11 CPU=   -1 GPU=   -1 NThAct=    1.
 PrSmSu:  NxtVal=             13.
 ***** Potential Energy ***** 
                1             2             3             4 
      1  0.300634D+01
      2  0.159287D+01  0.168097D+01
      3  0.118941D+01  0.124482D+01  0.549025D+01
      4  0.149451D+01  0.159886D+01  0.244432D+01  0.235135D+01
 ****** Core Hamiltonian ****** 
                1             2             3             4 
      1 -0.161066D+01
      2 -0.133314D+01 -0.143906D+01
      3 -0.108376D+01 -0.112978D+01 -0.256459D+01
      4 -0.125777D+01 -0.139930D+01 -0.197710D+01 -0.190441D+01
 SSO for IR=          1
                 1             2             3             4 
      1   0.100000D+01  0.658292D+00  0.300303D+00  0.536094D+00
      2   0.658292D+00  0.100000D+01  0.334248D+00  0.746564D+00
      3   0.300303D+00  0.334248D+00  0.100000D+01  0.634148D+00
      4   0.536094D+00  0.746564D+00  0.634148D+00  0.100000D+01
 SVDSVc IOpt=   1 NormSV=T IR=1
 SVDSVc V= 2.63D+00 8.04D-01 4.03D-01 1.61D-01
 V for IR=          1
                 1             2             3             4 
      1   0.476213D+00 -0.491472D+00  0.713886D+00  0.148468D+00
      2   0.533988D+00 -0.353043D+00 -0.473425D+00 -0.605051D+00
      3   0.415192D+00  0.775786D+00  0.328518D+00 -0.343289D+00
      4   0.561866D+00  0.178807D+00 -0.397883D+00  0.702868D+00
 Vt*S*V: 
                1             2             3             4 
      1  0.100000D+01
      2  0.000000D+00  0.100000D+01
      3  0.000000D+00  0.000000D+00  0.100000D+01
      4  0.000000D+00  0.000000D+00  0.000000D+00  0.100000D+01
 TstOVc:  Largest diagonal error= 5.55D-16 IB=1 I=    3.
 TstOVc:  Largest same sym error= 8.26D-16 IB=1 I=    3 J=    2.
 Orthogonalized basis functions: 
                 1             2             3             4 
      1   0.293506D+00 -0.548179D+00  0.112476D+01  0.370189D+00
      2   0.329115D+00 -0.393778D+00 -0.745901D+00 -0.150862D+01
      3   0.255897D+00  0.865299D+00  0.517594D+00 -0.855951D+00
      4   0.346297D+00  0.199439D+00 -0.626881D+00  0.175252D+01
 NBasis=     4 RedAO= T EigKep=  1.61D-01  NBF=     4
 NBsUse=     4 1.00D-06 EigRej= -1.00D+00 NBFU=     4
 Leave Link  302 at Tue Jun 27 13:38:36 2023, MaxMem=  4294967296 cpu:               4.2 elap:               0.9
 (Enter /opt/gaussian/gdv-20180628-i14+/gdv/l303.exe)
 GetPCM: File not found, return IValue=0.
 DipDrv:  MaxL=1.
 MemDpI: Int=      800000 Cav=           0 CFW=           0 Tot=      800000
 DipPsm:  J= 1 NJ= 4 MaxL=1 MMat= 4 MaxMat= 4.
 DipInt: DoE/N= T F RetVal/Mat= F T Init=T NMatP=  4 IDeriv=0 Min/MaxMlt=  0  1
 Entering OneElI...
 OneElI was handed  4294967255 working-precision words.
 Multipole integrals L=0 to 1 MinM= 0 MaxM= 3.
 Requested accuracy = 0.1000D-12
 ShPair: Thresh= 1.00D-13 NBox=     0 BxSize= 0.00D+00 RnKept= 1.46D+00
         NSMCal=                   10 NSMKep=                  10
 PrmmSu-InSpLW:  IPartL=    0 NPrtUS=    1 NPrtUL=    1 DoSpLW=F IThBeg=    0 IThEnd=    0 NThAct=    1.
 PrSmSu:  IncTry=   512 NBBP=             10 NTPThr=   100 NPartT=    1 Incr=           1 LDynOK=F GPUOK=F.
 PrsmSu:  NPrtUS=   1 ThrOK=F IAlg=2 LenDen=           0 ISkipM=0 DoSpLW=F IThBeg=    0 IThEnd=    0.
 Prism:   IPart=     0 DynPar=F LinDyn=F Incr=           1.
 PRISM was handed  4294965765 working-precision words and    10 shell-pairs
 IPart=  0 NShTot=          10 NBatch=           3 AvBLen=         3.3
 PrsmSu-ThDecC:  IPartSL=    0    0 NPrtUSL=    1    1 IThBeg=    0 IThEnd=    0 CPU=   -1 GPU=   -1 NThAct=    1.
 PrSmSu:  NxtVal=              2.
 Multipole matrices IBuc=  518 IX=    1 IJ=           1:
                1             2             3             4 
      1  0.000000D+00
      2  0.000000D+00  0.000000D+00
      3  0.000000D+00  0.000000D+00  0.000000D+00
      4  0.000000D+00  0.000000D+00  0.000000D+00  0.000000D+00
 Multipole matrices IBuc=  518 IX=    2 IJ=           1:
                1             2             3             4 
      1  0.000000D+00
      2  0.000000D+00  0.000000D+00
      3  0.000000D+00  0.000000D+00  0.000000D+00
      4  0.000000D+00  0.000000D+00  0.000000D+00  0.000000D+00
 Multipole matrices IBuc=  518 IX=    3 IJ=           1:
                1             2             3             4 
      1 -0.729434D+00
      2 -0.480181D+00 -0.729434D+00
      3  0.664905D-01  0.192415D+00  0.729434D+00
      4 -0.162918D+00  0.162083D+00  0.462569D+00  0.729434D+00
 ReDoC1: IPurDI=1 IPurFI=1 IPurDO=1 IPurFO=0.
 Fermi contact integrals: 
                 1             2 
      1   0.994558D+00  0.107167D+00
      2   0.181381D+00  0.128683D+00
      3   0.473221D-01  0.180037D+01
      4   0.152448D+00  0.287431D+00
 Leave Link  303 at Tue Jun 27 13:38:37 2023, MaxMem=  4294967296 cpu:               1.6 elap:               0.4
 (Enter /opt/gaussian/gdv-20180628-i14+/gdv/l308.exe)
 Dipole velocity integrals will be written to rwf   572.
 Entering OneElI...
 OneElI was handed  4294967176 working-precision words.
 Calculate R x Del and Del integrals.
    NBasis =     4  MinDer = 0  MaxDer = 0
 Requested accuracy = 0.1000D-12
 ShPair: Thresh= 1.00D-13 NBox=     0 BxSize= 0.00D+00 RnKept= 1.46D+00
         NSMCal=                   10 NSMKep=                  10
 PrmmSu-InSpLW:  IPartL=    0 NPrtUS=    1 NPrtUL=    1 DoSpLW=F IThBeg=    0 IThEnd=    0 NThAct=    1.
 PrSmSu:  IncTry=   512 NBBP=             10 NTPThr=   100 NPartT=    1 Incr=           1 LDynOK=F GPUOK=F.
 PrsmSu:  NPrtUS=   1 ThrOK=F IAlg=2 LenDen=           0 ISkipM=0 DoSpLW=F IThBeg=    0 IThEnd=    0.
 Prism:   IPart=     0 DynPar=F LinDyn=F Incr=           1.
 PRISM was handed  4294965688 working-precision words and    10 shell-pairs
 IPart=  0 NShTot=          10 NBatch=           3 AvBLen=         3.3
 PrsmSu-ThDecC:  IPartSL=    0    0 NPrtUSL=    1    1 IThBeg=    0 IThEnd=    0 CPU=   -1 GPU=   -1 NThAct=    1.
 PrSmSu:  NxtVal=              2.
 Dipole Velocity for IMat=    1:
                1             2             3             4 
      1  0.000000D+00
      2  0.000000D+00  0.000000D+00
      3  0.000000D+00  0.000000D+00  0.000000D+00
      4  0.000000D+00  0.000000D+00  0.000000D+00  0.000000D+00
 Dipole Velocity for IMat=    2:
                1             2             3             4 
      1  0.000000D+00
      2  0.000000D+00  0.000000D+00
      3  0.000000D+00  0.000000D+00  0.000000D+00
      4  0.000000D+00  0.000000D+00  0.000000D+00  0.000000D+00
 Dipole Velocity for IMat=    3:
                1             2             3             4 
      1  0.000000D+00
      2  0.000000D+00  0.000000D+00
      3 -0.423402D+00 -0.140708D+00  0.000000D+00
      4 -0.330123D+00 -0.227935D+00  0.000000D+00  0.000000D+00
 R x Del for IMat=    1:
                1             2             3             4 
      1  0.000000D+00
      2  0.000000D+00  0.000000D+00
      3  0.000000D+00  0.000000D+00  0.000000D+00
      4  0.000000D+00  0.000000D+00  0.000000D+00  0.000000D+00
 R x Del for IMat=    2:
                1             2             3             4 
      1  0.000000D+00
      2  0.000000D+00  0.000000D+00
      3  0.000000D+00  0.000000D+00  0.000000D+00
      4  0.000000D+00  0.000000D+00  0.000000D+00  0.000000D+00
 R x Del for IMat=    3:
                1             2             3             4 
      1  0.000000D+00
      2  0.000000D+00  0.000000D+00
      3  0.000000D+00  0.000000D+00  0.000000D+00
      4  0.000000D+00  0.000000D+00  0.000000D+00  0.000000D+00
< mu | del r + r del | nu > integrals: XX
                1             2             3             4 
      1  0.000000D+00
      2 -0.415363D+00  0.000000D+00
      3  0.911536D-01  0.263787D+00  0.000000D+00
      4 -0.223349D+00  0.222203D+00 -0.411229D+00  0.000000D+00
< mu | del r + r del | nu > integrals: YY
                1             2             3             4 
      1  0.000000D+00
      2 -0.415363D+00  0.000000D+00
      3  0.911536D-01  0.263787D+00  0.000000D+00
      4 -0.223349D+00  0.222203D+00 -0.411229D+00  0.000000D+00
< mu | del r + r del | nu > integrals: ZZ
                1             2             3             4 
      1  0.000000D+00
      2 -0.415363D+00  0.000000D+00
      3 -0.698361D-01  0.101439D+00  0.000000D+00
      4 -0.156412D-01  0.123232D+00 -0.411229D+00  0.000000D+00
< mu | del r + r del | nu > integrals: XY
                1             2             3             4 
      1  0.000000D+00
      2  0.000000D+00  0.000000D+00
      3  0.000000D+00  0.000000D+00  0.000000D+00
      4  0.000000D+00  0.000000D+00  0.000000D+00  0.000000D+00
< mu | del r + r del | nu > integrals: XZ
                1             2             3             4 
      1  0.000000D+00
      2  0.000000D+00  0.000000D+00
      3  0.000000D+00  0.000000D+00  0.000000D+00
      4  0.000000D+00  0.000000D+00  0.000000D+00  0.000000D+00
< mu | del r + r del | nu > integrals: YZ
                1             2             3             4 
      1  0.000000D+00
      2  0.000000D+00  0.000000D+00
      3  0.000000D+00  0.000000D+00  0.000000D+00
      4  0.000000D+00  0.000000D+00  0.000000D+00  0.000000D+00
 Leave Link  308 at Tue Jun 27 13:38:37 2023, MaxMem=  4294967296 cpu:               1.4 elap:               0.4
 (Enter /opt/gaussian/gdv-20180628-i14+/gdv/l401.exe)
 Initial guess wavefunction:
 SetAtRh:  ITypeU=  14 NETotI=       2 ICharg=  1 NETot=       2.
 StAtR1:  I=    1 I1=    1 IA=  1 C=   1.0 OKShel=T
                                                  S
                                                  1
 StAtR1:  I=    2 I1=    2 IA=  2 C=   2.0 OKShel=T
                                                  S
                                                  2
          I=    1 IA=  1 I1=    1 NAtG=10 NE=   1.000 C=   0.667 Err=-3.33D-01
          I=    2 IA=  2 I1=    2 NAtG=11 NE=   2.000 C=   1.333 Err=-6.67D-01
 ShPair: Thresh= 1.00D-12 NBox=     0 BxSize= 0.00D+00 RnKept= 1.46D+00
         NSMCal=                   10 NSMKep=                  10
 ReadGW:  IGet=1 IStart=           1 Next=           1 LGW=           0.
 ExpMin= 1.61D-01 ExpMax= 3.84D+01 ExpMxC= 3.84D+01 IAcc=3 IRadAn=         5 AccDes= 0.00D+00
 Harris functional with IExCor=  205 and IRadAn=       5 diagonalized for initial guess.
 HarFok:  IExCor=  205 AccDes= 0.00D+00 IRadAn=         5 IDoV= 1 UseB2=F ITyADJ=14
 ICtDFT=  3500011 ScaDFX=  1.000000  1.000000  1.000000  1.000000
 Pruned (  99, 590) grid will be used in numerical quadrature.
 CkSvGd:  ISavGI=        -1 IRadAn=       5 IRASav=       0 ISavGd=        -1.
 SetAtRh:  ITypeU=  13 NETotI=       3 ICharg=  0 NETot=       3.
 StAtR1:  I=    1 I1=    1 IA=  1 C=   1.0 OKShel=T
                                                  S
                                                  1
 StAtR1:  I=    2 I1=    2 IA=  2 C=   2.0 OKShel=T
                                                  S
                                                  2
          I=    1 IA=  1 I1=    1 NAtG= 9 NE=   1.000 C=   1.000 Err=-2.15D-12
          I=    2 IA=  2 I1=    2 NAtG=10 NE=   2.000 C=   2.000 Err=-3.06D-12
 CalDSu-InSpLW:  IPartL=    0 NPrtUS=   12 NPrtUL=    1 DoSpLW=F IThBeg=    0 IThEnd=   11 NThAct=   12.
 CalDSu:  NPrtUS=  12 ThrOK=T IAlg=2 DoDPD=F LenP=          10 LenD1P=             0 GPUOK=F
          ISkipM=0 DoSpLW=F IThBeg=    0 IThEnd=   11.
 IPart=  0 IRanGd=          0 ScrnBf=T ScrnGd=T RCrit=4.00D+00 DoMicB=T.
 CutRad = 1000.00    CtRdIn =    0.00    XCrit =  15.00   ICut = 0
 IPart=  9 IRanGd=          0 ScrnBf=T ScrnGd=T RCrit=4.00D+00 DoMicB=T.
 IPart=  6 IRanGd=          0 ScrnBf=T ScrnGd=T RCrit=4.00D+00 DoMicB=T.
 CutRad = 1000.00    CtRdIn =    0.00    XCrit =  15.00   ICut = 0
 Pruned (  99, 590) grid will be used in numerical quadrature.
 CutRad = 1000.00    CtRdIn =    0.00    XCrit =  15.00   ICut = 0
 Pruned (  99, 590) grid will be used in numerical quadrature.
 IPart=  0 Atom number   1 atomic number  1 has       21352 grid points.
 IPart=  9 Atom number   1 atomic number  1 has       21352 grid points.
 IPart=  8 IRanGd=          0 ScrnBf=T ScrnGd=T RCrit=4.00D+00 DoMicB=T.
 At   1 B   1: 100.0% Sh 100.0 % Bf    1 runs, min    4 max    4 av    4.0
 IPart=  0 Atom   1 batch    1 overlaps    2 atoms,     4 shells and     2 DB shells.   NGrid=      2838
 At   1 B   2: 100.0% Sh 100.0 % Bf    1 runs, min    4 max    4 av    4.0
 IPart=  9 Atom   1 batch    2 overlaps    2 atoms,     4 shells and     2 DB shells.   NGrid=      1552
 Pruned (  99, 590) grid will be used in numerical quadrature.
 CutRad = 1000.00    CtRdIn =    0.00    XCrit =  15.00   ICut = 0
 Symmetry reduced    86 angular points to    86 for atom    1.
 Symmetry reduced   194 angular points to   194 for atom    1.
 IPart=  6 Atom number   1 atomic number  1 has       21352 grid points.
 At   1 B   3: 100.0% Sh 100.0 % Bf    1 runs, min    4 max    4 av    4.0
 IPart=  6 Atom   1 batch    3 overlaps    2 atoms,     4 shells and     2 DB shells.   NGrid=      2416
 Symmetry reduced   302 angular points to   302 for atom    1.
 IPart=  4 IRanGd=          0 ScrnBf=T ScrnGd=T RCrit=4.00D+00 DoMicB=T.
 CutRad = 1000.00    CtRdIn =    0.00    XCrit =  15.00   ICut = 0
 Pruned (  99, 590) grid will be used in numerical quadrature.
 IPart=  4 Atom number   1 atomic number  1 has       21352 grid points.
 At   1 B   4: 100.0% Sh 100.0 % Bf    1 runs, min    4 max    4 av    4.0
 IPart=  4 Atom   1 batch    4 overlaps    2 atoms,     4 shells and     2 DB shells.   NGrid=      1180
 Symmetry reduced   590 angular points to   590 for atom    1.
 Pruned (  99, 590) grid will be used in numerical quadrature.
 IPart=  8 Atom number   1 atomic number  1 has       21352 grid points.
 At   1 B   5: 100.0% Sh 100.0 % Bf    1 runs, min    4 max    4 av    4.0
 IPart=  8 Atom   1 batch    5 overlaps    2 atoms,     4 shells and     2 DB shells.   NGrid=      1180
 Symmetry reduced   590 angular points to   590 for atom    1.
 IPart=  7 IRanGd=          0 ScrnBf=T ScrnGd=T RCrit=4.00D+00 DoMicB=T.
 IPart= 11 IRanGd=          0 ScrnBf=T ScrnGd=T RCrit=4.00D+00 DoMicB=T.
 IPart=  3 IRanGd=          0 ScrnBf=T ScrnGd=T RCrit=4.00D+00 DoMicB=T.
 CutRad = 1000.00    CtRdIn =    0.00    XCrit =  15.00   ICut = 0
 CutRad = 1000.00    CtRdIn =    0.00    XCrit =  15.00   ICut = 0
 CutRad = 1000.00    CtRdIn =    0.00    XCrit =  15.00   ICut = 0
 Pruned (  99, 590) grid will be used in numerical quadrature.
 IPart=  7 Atom number   1 atomic number  1 has       21352 grid points.
 Pruned (  99, 590) grid will be used in numerical quadrature.
 At   1 B   6: 100.0% Sh 100.0 % Bf    1 runs, min    4 max    4 av    4.0
 IPart=  7 Atom   1 batch    6 overlaps    2 atoms,     4 shells and     2 DB shells.   NGrid=      1180
 IPart=  3 Atom number   1 atomic number  1 has       21352 grid points.
 At   1 B   7: 100.0% Sh 100.0 % Bf    1 runs, min    4 max    4 av    4.0
 IPart=  3 Atom   1 batch    7 overlaps    2 atoms,     4 shells and     2 DB shells.   NGrid=      1180
 Symmetry reduced   590 angular points to   590 for atom    1.
 Symmetry reduced   590 angular points to   590 for atom    1.
 IPart= 10 IRanGd=          0 ScrnBf=T ScrnGd=T RCrit=4.00D+00 DoMicB=T.
 CutRad = 1000.00    CtRdIn =    0.00    XCrit =  15.00   ICut = 0
 Pruned (  99, 590) grid will be used in numerical quadrature.
 IPart= 10 Atom number   1 atomic number  1 has       21352 grid points.
 At   1 B   8: 100.0% Sh 100.0 % Bf    1 runs, min    4 max    4 av    4.0
 IPart= 10 Atom   1 batch    8 overlaps    2 atoms,     4 shells and     2 DB shells.   NGrid=      1180
 Pruned (  99, 590) grid will be used in numerical quadrature.
 IPart= 11 Atom number   1 atomic number  1 has       21352 grid points.
 Symmetry reduced   590 angular points to   590 for atom    1.
 At   1 B   9: 100.0% Sh 100.0 % Bf    1 runs, min    4 max    4 av    4.0
 IPart= 11 Atom   1 batch    9 overlaps    2 atoms,     4 shells and     2 DB shells.   NGrid=      1180
 Symmetry reduced   590 angular points to   590 for atom    1.
 At   1 B  10: 100.0% Sh 100.0 % Bf    1 runs, min    4 max    4 av    4.0
 IPart=  4 Atom   1 batch   10 overlaps    2 atoms,     4 shells and     2 DB shells.   NGrid=      1180
 At   1 B  11: 100.0% Sh 100.0 % Bf    1 runs, min    4 max    4 av    4.0
 IPart=  8 Atom   1 batch   11 overlaps    2 atoms,     4 shells and     2 DB shells.   NGrid=      1180
 At   1 B  12: 100.0% Sh 100.0 % Bf    1 runs, min    4 max    4 av    4.0
 IPart=  9 Atom   1 batch   12 overlaps    2 atoms,     4 shells and     2 DB shells.   NGrid=      1180
 Symmetry reduced   590 angular points to   590 for atom    1.
 At   1 B  13: 100.0% Sh 100.0 % Bf    1 runs, min    4 max    4 av    4.0
 IPart=  6 Atom   1 batch   13 overlaps    2 atoms,     4 shells and     2 DB shells.   NGrid=       604
 At   1 B  14: 100.0% Sh 100.0 % Bf    1 runs, min    4 max    4 av    4.0
 IPart=  4 Atom   1 batch   14 overlaps    2 atoms,     4 shells and     2 DB shells.   NGrid=       604
 Symmetry reduced   302 angular points to   302 for atom    1.
 At   1 B  15: 100.0% Sh 100.0 % Bf    1 runs, min    4 max    4 av    4.0
 IPart=  8 Atom   1 batch   15 overlaps    2 atoms,     4 shells and     2 DB shells.   NGrid=       604
 Symmetry reduced   302 angular points to   302 for atom    1.
 At   1 B  16:  50.0% Sh  50.0 % Bf    2 runs, min    1 max    1 av    1.0
 IPart=  9 Atom   1 batch   16 overlaps    2 atoms,     2 shells and     2 DB shells.   NGrid=       604
 Symmetry reduced   302 angular points to   302 for atom    1.
 At   1 B  17:  50.0% Sh  50.0 % Bf    2 runs, min    1 max    1 av    1.0
 IPart=  6 Atom   1 batch   17 overlaps    2 atoms,     2 shells and     2 DB shells.   NGrid=       604
 At   1 B  18:  50.0% Sh  50.0 % Bf    2 runs, min    1 max    1 av    1.0
 IPart=  4 Atom   1 batch   18 overlaps    2 atoms,     2 shells and     1 DB shells.   NGrid=       604
 There are no significant shells for this batch.
 IPart=  3 Atom   1 batch   19 overlaps    2 atoms,     0 shells and     1 DB shells.   NGrid=       302
 Symmetry reduced   302 angular points to   302 for atom    1.
 Pruned (  99, 590) grid will be used in numerical quadrature.
 IPart=  8 Atom number   2 atomic number  2 has       22560 grid points.
 At   2 B   1: 100.0% Sh 100.0 % Bf    1 runs, min    4 max    4 av    4.0
 IPart=  8 Atom   2 batch    1 overlaps    2 atoms,     4 shells and     2 DB shells.   NGrid=      2838
 Pruned (  99, 590) grid will be used in numerical quadrature.
 Symmetry reduced    86 angular points to    86 for atom    2.
 IPart=  3 Atom number   2 atomic number  2 has       22560 grid points.
 At   2 B   2: 100.0% Sh 100.0 % Bf    1 runs, min    4 max    4 av    4.0
 IPart=  3 Atom   2 batch    2 overlaps    2 atoms,     4 shells and     2 DB shells.   NGrid=      1552
 Symmetry reduced   194 angular points to   194 for atom    2.
 Pruned (  99, 590) grid will be used in numerical quadrature.
 IPart=  9 Atom number   2 atomic number  2 has       22560 grid points.
 At   2 B   3: 100.0% Sh 100.0 % Bf    1 runs, min    4 max    4 av    4.0
 IPart=  9 Atom   2 batch    3 overlaps    2 atoms,     4 shells and     2 DB shells.   NGrid=      2416
 Symmetry reduced   302 angular points to   302 for atom    2.
 Pruned (  99, 590) grid will be used in numerical quadrature.
 IPart=  7 Atom number   2 atomic number  2 has       22560 grid points.
 At   2 B   4: 100.0% Sh 100.0 % Bf    1 runs, min    4 max    4 av    4.0
 IPart=  7 Atom   2 batch    4 overlaps    2 atoms,     4 shells and     2 DB shells.   NGrid=      1180
 Symmetry reduced   590 angular points to   590 for atom    2.
 Pruned (  99, 590) grid will be used in numerical quadrature.
 Pruned (  99, 590) grid will be used in numerical quadrature.
 IPart=  6 Atom number   2 atomic number  2 has       22560 grid points.
 IPart=  4 Atom number   2 atomic number  2 has       22560 grid points.
 At   2 B   5: 100.0% Sh 100.0 % Bf    1 runs, min    4 max    4 av    4.0
 IPart=  6 Atom   2 batch    5 overlaps    2 atoms,     4 shells and     2 DB shells.   NGrid=      1180
 At   2 B   6: 100.0% Sh 100.0 % Bf    1 runs, min    4 max    4 av    4.0
 IPart=  4 Atom   2 batch    6 overlaps    2 atoms,     4 shells and     2 DB shells.   NGrid=      1180
 Symmetry reduced   590 angular points to   590 for atom    2.
 Symmetry reduced   590 angular points to   590 for atom    2.
 Pruned (  99, 590) grid will be used in numerical quadrature.
 IPart= 10 Atom number   2 atomic number  2 has       22560 grid points.
 At   2 B   7: 100.0% Sh 100.0 % Bf    1 runs, min    4 max    4 av    4.0
 IPart= 10 Atom   2 batch    7 overlaps    2 atoms,     4 shells and     2 DB shells.   NGrid=      1180
 Symmetry reduced   590 angular points to   590 for atom    2.
 IPart=  5 IRanGd=          0 ScrnBf=T ScrnGd=T RCrit=4.00D+00 DoMicB=T.
 CutRad = 1000.00    CtRdIn =    0.00    XCrit =  15.00   ICut = 0
 At   2 B   8: 100.0% Sh 100.0 % Bf    1 runs, min    4 max    4 av    4.0
 IPart=  7 Atom   2 batch    8 overlaps    2 atoms,     4 shells and     2 DB shells.   NGrid=      1180
 At   2 B   9: 100.0% Sh 100.0 % Bf    1 runs, min    4 max    4 av    4.0
 IPart=  3 Atom   2 batch    9 overlaps    2 atoms,     4 shells and     2 DB shells.   NGrid=      1180
 Symmetry reduced   590 angular points to   590 for atom    2.
 At   2 B  10: 100.0% Sh 100.0 % Bf    1 runs, min    4 max    4 av    4.0
 IPart=  6 Atom   2 batch   10 overlaps    2 atoms,     4 shells and     2 DB shells.   NGrid=      1180
 At   2 B  11: 100.0% Sh 100.0 % Bf    1 runs, min    4 max    4 av    4.0
 IPart=  4 Atom   2 batch   11 overlaps    2 atoms,     4 shells and     2 DB shells.   NGrid=      1180
 At   2 B  12: 100.0% Sh 100.0 % Bf    1 runs, min    4 max    4 av    4.0
 IPart= 10 Atom   2 batch   12 overlaps    2 atoms,     4 shells and     2 DB shells.   NGrid=      1180
 Pruned (  99, 590) grid will be used in numerical quadrature.
 IPart=  5 Atom number   1 atomic number  1 has       21352 grid points.
 Pruned (  99, 590) grid will be used in numerical quadrature.
 IPart=  5 Atom number   2 atomic number  2 has       22560 grid points.
 At   2 B  13: 100.0% Sh 100.0 % Bf    1 runs, min    4 max    4 av    4.0
 IPart=  5 Atom   2 batch   13 overlaps    2 atoms,     4 shells and     2 DB shells.   NGrid=       604
 Symmetry reduced   302 angular points to   302 for atom    2.
 At   2 B  14: 100.0% Sh 100.0 % Bf    1 runs, min    4 max    4 av    4.0
 IPart=  9 Atom   2 batch   14 overlaps    2 atoms,     4 shells and     2 DB shells.   NGrid=       604
 At   2 B  15: 100.0% Sh 100.0 % Bf    1 runs, min    4 max    4 av    4.0
 IPart=  3 Atom   2 batch   15 overlaps    2 atoms,     4 shells and     2 DB shells.   NGrid=       604
 Symmetry reduced   302 angular points to   302 for atom    2.
 At   2 B  16: 100.0% Sh 100.0 % Bf    1 runs, min    4 max    4 av    4.0
 IPart=  6 Atom   2 batch   16 overlaps    2 atoms,     4 shells and     2 DB shells.   NGrid=       604
 At   2 B  17:  75.0% Sh  75.0 % Bf    2 runs, min    1 max    2 av    1.5
 IPart=  4 Atom   2 batch   17 overlaps    2 atoms,     3 shells and     2 DB shells.   NGrid=       604
 Symmetry reduced   302 angular points to   302 for atom    2.
 At   2 B  18:  75.0% Sh  75.0 % Bf    2 runs, min    1 max    2 av    1.5
 IPart= 10 Atom   2 batch   18 overlaps    2 atoms,     3 shells and     2 DB shells.   NGrid=       604
 Symmetry reduced   302 angular points to   302 for atom    2.
 Symmetry reduced   302 angular points to   302 for atom    2.
 At   2 B  19:  75.0% Sh  75.0 % Bf    2 runs, min    1 max    2 av    1.5
 IPart=  9 Atom   2 batch   19 overlaps    2 atoms,     3 shells and     1 DB shells.   NGrid=       604
 At   2 B  20:  25.0% Sh  25.0 % Bf    1 runs, min    1 max    1 av    1.0
 IPart=  3 Atom   2 batch   20 overlaps    2 atoms,     1 shells and     1 DB shells.   NGrid=       604
 At   2 B  21:  25.0% Sh  25.0 % Bf    1 runs, min    1 max    1 av    1.0
 IPart=  6 Atom   2 batch   21 overlaps    2 atoms,     1 shells and     1 DB shells.   NGrid=       302
 IPart=  4         6314 of         6532 points in       7 batches and       56 microbatches, Max-NSigAt=       2 Max-NSgAt2=       2
 CalDSu-ThDecC:  IPartSL=    4    0 NPrtUSL=   12    1 IThBeg=    0 IThEnd=   11 CPU=   -1 GPU=   -1 NThAct=   12.
 IPart= 10         4010 of         4144 points in       4 batches and       27 microbatches, Max-NSigAt=       2 Max-NSgAt2=       2
 CalDSu-ThDecC:  IPartSL=   10    0 NPrtUSL=   12    1 IThBeg=    0 IThEnd=   11 CPU=   -1 GPU=   -1 NThAct=   11.
 IPart=  6         6713 of         6890 points in       7 batches and       50 microbatches, Max-NSigAt=       2 Max-NSgAt2=       2
 CalDSu-ThDecC:  IPartSL=    6    0 NPrtUSL=   12    1 IThBeg=    0 IThEnd=   11 CPU=   -1 GPU=   -1 NThAct=   10.
 IPart=  3         4997 of         5422 points in       6 batches and       34 microbatches, Max-NSigAt=       2 Max-NSgAt2=       2
 CalDSu-ThDecC:  IPartSL=    3    0 NPrtUSL=   12    1 IThBeg=    0 IThEnd=   11 CPU=   -1 GPU=   -1 NThAct=    9.
 IPart=  9         6772 of         6960 points in       6 batches and       61 microbatches, Max-NSigAt=       2 Max-NSgAt2=       2
 CalDSu-ThDecC:  IPartSL=    9    0 NPrtUSL=   12    1 IThBeg=    0 IThEnd=   11 CPU=   -1 GPU=   -1 NThAct=    8.
 Pruned (  99, 590) grid will be used in numerical quadrature.
 IPart=  0 Atom number   2 atomic number  2 has       22560 grid points.
 IPart=  0         2838 of         2838 points in       1 batches and        6 microbatches, Max-NSigAt=       2 Max-NSgAt2=       2
 CalDSu-ThDecC:  IPartSL=    0    0 NPrtUSL=   12    1 IThBeg=    0 IThEnd=   11 CPU=   -1 GPU=   -1 NThAct=    7.
 IPart=  5          578 of          604 points in       1 batches and        3 microbatches, Max-NSigAt=       2 Max-NSgAt2=       2
 CalDSu-ThDecC:  IPartSL=    5    0 NPrtUSL=   12    1 IThBeg=    0 IThEnd=   11 CPU=   -1 GPU=   -1 NThAct=    6.
 IPart=  8         5694 of         5802 points in       4 batches and       30 microbatches, Max-NSigAt=       2 Max-NSgAt2=       2
 CalDSu-ThDecC:  IPartSL=    8    0 NPrtUSL=   12    1 IThBeg=    0 IThEnd=   11 CPU=   -1 GPU=   -1 NThAct=    5.
 Pruned (  99, 590) grid will be used in numerical quadrature.
 IPart= 11 Atom number   2 atomic number  2 has       22560 grid points.
 IPart= 11         1130 of         1180 points in       1 batches and        3 microbatches, Max-NSigAt=       2 Max-NSgAt2=       2
 CalDSu-ThDecC:  IPartSL=   11    0 NPrtUSL=   12    1 IThBeg=    0 IThEnd=   11 CPU=   -1 GPU=   -1 NThAct=    4.
 IPart=  1 IRanGd=          0 ScrnBf=T ScrnGd=T RCrit=4.00D+00 DoMicB=T.
 CutRad = 1000.00    CtRdIn =    0.00    XCrit =  15.00   ICut = 0
 Pruned (  99, 590) grid will be used in numerical quadrature.
 IPart=  1 Atom number   1 atomic number  1 has       21352 grid points.
 Pruned (  99, 590) grid will be used in numerical quadrature.
 IPart=  1 Atom number   2 atomic number  2 has       22560 grid points.
 IPart=  1            0 of            0 points in       0 batches and        0 microbatches, Max-NSigAt=       0 Max-NSgAt2=       0
 CalDSu-ThDecC:  IPartSL=    1    0 NPrtUSL=   12    1 IThBeg=    0 IThEnd=   11 CPU=   -1 GPU=   -1 NThAct=    3.
 IPart=  7         3534 of         3540 points in       3 batches and        9 microbatches, Max-NSigAt=       2 Max-NSgAt2=       2
 CalDSu-ThDecC:  IPartSL=    7    0 NPrtUSL=   12    1 IThBeg=    0 IThEnd=   11 CPU=   -1 GPU=   -1 NThAct=    2.
 IPart=  2 IRanGd=          0 ScrnBf=T ScrnGd=T RCrit=4.00D+00 DoMicB=T.
 CutRad = 1000.00    CtRdIn =    0.00    XCrit =  15.00   ICut = 0
 Pruned (  99, 590) grid will be used in numerical quadrature.
 IPart=  2 Atom number   1 atomic number  1 has       21352 grid points.
 Pruned (  99, 590) grid will be used in numerical quadrature.
 IPart=  2 Atom number   2 atomic number  2 has       22560 grid points.
 IPart=  2            0 of            0 points in       0 batches and        0 microbatches, Max-NSigAt=       0 Max-NSgAt2=       0
 CalDSu-ThDecC:  IPartSL=    2    0 NPrtUSL=   12    1 IThBeg=    0 IThEnd=   11 CPU=   -1 GPU=   -1 NThAct=    1.
 Requested info about the electron count:
 NE=    3 NElCor=    0 El error=2.84D-10 rel=9.46D-11 Tolerance=1.00D-03
 Shell     2     absolute error=1.26D-09              Tolerance=1.20D-02
 Shell     2       signed error=1.26D-09              Tolerance=1.00D-01
 SetAtRh:  ITypeU=  14 NETotI=       3 ICharg=  0 NETot=       3.
 StAtR1:  I=    1 I1=    1 IA=  1 C=   1.0 OKShel=T
                                                  S
                                                  1
 StAtR1:  I=    2 I1=    2 IA=  2 C=   2.0 OKShel=T
                                                  S
                                                  2
          I=    1 IA=  1 I1=    1 NAtG=10 NE=   1.000 C=   1.000 Err=-1.35D-12
          I=    2 IA=  2 I1=    2 NAtG=11 NE=   2.000 C=   2.000 Err=-6.03D-12
 FoFCou: FMM=F IPFlag=           0 FMFlag=      100000 FMFlg1=           0
         NFxFlg=           0 DoJE=T BraDBF=F KetDBF=T FulRan=T
         wScrn=  0.000000 ICntrl=       500 IOpCl=  0 I1Cent=   200000004 NGrid=           0
         NMat0=    1 NMatS0=      1 NMatT0=    0 NMatD0=    1 NMtDS0=    0 NMtDT0=    0
 Symmetry not used in FoFCou.
 FoFCou:  KetSym=T NOpSet=  1 NOpAb=1 NOp=  1.
 FoFCou:  CnvScl= 1.00D+00 Thresh= 1.00D-12 IAcrcy=      10.
 ShPair: Thresh= 1.00D-12 NBox=     0 BxSize= 0.00D+00 RnKept= 1.46D+00
         NSMCal=                   10 NSMKep=                  10
 FoFCou: LinMIO=F DoNuc=F BraDBF=F KetDBF=T HaveP=T PDBF=T HaveZ=F HaveW=F
         NIJTC =       1 NIJTAt=       0 NIJTCD=       1 NIJTT =       2
         IJTBeg=       1 IJTEnd=       1 KLTBeg=       2 KLTEnd=       2
         IPTBeg=       2 IPTEnd=       2 IPTBCv=       2 IPTECv=       2
         IZTBeg=       1 IZTEnd=       1 IZTBCv=       1 IZTECv=       1
         IWTBeg=       2 IWTEnd=       2 IWTBCv=       2 IWTECv=       2
         INTBeg=       1 INTEnd=       0 IFTBCv=       1 IFTECv=       1
 Entering DenIrr
 DenIrr was handed  4294966722 working-precision words and    12 shell-pairs
 Leaving DenIrr, iEnd w/o den=        2132 nHerm=          12.
 CoulSu-InSpLW:  IPartL=    0 NPrtUS=   12 NPrtUL=    1 DoSpLW=F IThBeg=    0 IThEnd=   11 NThAct=   12.
 CoulSu:  IncTry=  1024 NBBP=             20 NTPThr=   100 NPartT=   12 Incr=           1 LDynOK=F GPUOK=F.
 CoulSu:  NPrtUS=  12 ThrOK=T IAlg=1 LenDen=          12 LWGrdD=           0 DoCopy=T ISkipM=0
          DoSpLW=F IThBeg=    0 IThEnd=   11.
 CoulSu:  IPart=    0 IPartR=    0 CPU=   -1 GPU=   -1.
 CoulSu:  IPart=    4 IPartR=    4 CPU=   -1 GPU=   -1.
 Enter PrismC:  IPart=  0 JobTyp=20 DoJE=T Cont=T.
 Enter PrismC:  IPart=  4 JobTyp=20 DoJE=T Cont=T.
 PrismC:  IPart=     0 DynPar=F LinDyn=F Incr=           1 UseFst=F UseS4=T ISplat=2.
 PrismC was handed   357912717 working-precision words and    10 shell-pairs
 PrismC:  IPart=     4 DynPar=F LinDyn=F Incr=           1 UseFst=F UseS4=T ISplat=2.
 PrismC was handed   357912717 working-precision words and    10 shell-pairs
 CoulSu:  IPart=    1 IPartR=    1 CPU=   -1 GPU=   -1.
 Enter PrismC:  IPart=  1 JobTyp=20 DoJE=T Cont=T.
 PrismC:  IPart=     1 DynPar=F LinDyn=F Incr=           1 UseFst=F UseS4=T ISplat=2.
 PrismC was handed   357912717 working-precision words and    10 shell-pairs
 CoulSu:  IPart=    5 IPartR=    5 CPU=   -1 GPU=   -1.
 Enter PrismC:  IPart=  5 JobTyp=20 DoJE=T Cont=T.
 PrismC:  IPart=     5 DynPar=F LinDyn=F Incr=           1 UseFst=F UseS4=T ISplat=2.
 PrismC was handed   357912717 working-precision words and    10 shell-pairs
 CoulSu:  IPart=    2 IPartR=    2 CPU=   -1 GPU=   -1.
 CoulSu:  IPart=    3 IPartR=    3 CPU=   -1 GPU=   -1.
 Enter PrismC:  IPart=  2 JobTyp=20 DoJE=T Cont=T.
 Enter PrismC:  IPart=  3 JobTyp=20 DoJE=T Cont=T.
 PrismC:  IPart=     2 DynPar=F LinDyn=F Incr=           1 UseFst=F UseS4=T ISplat=2.
 PrismC was handed   357912717 working-precision words and    10 shell-pairs
 PrismC:  IPart=     3 DynPar=F LinDyn=F Incr=           1 UseFst=F UseS4=T ISplat=2.
 PrismC was handed   357912717 working-precision words and    10 shell-pairs
 IPart=  0 NShTot=          20 NShNF=          20 NShFF=           0 MinMC=     200
           NShCPU=          20 NBCPU=          20 AvBCPU=         1.0
           NShGPU=           0 NBGPU=           0 AvBGPU=         0.0
 CoulSu-ThDecC:  IPartSL=    0    0 NPrtUSL=   12    1 IThBeg=    0 IThEnd=   11 CPU=   -1 GPU=   -1 NThAct=   12.
 IPart=  1 NShTot=           0 NShNF=           0 NShFF=           0 MinMC=     200
           NShCPU=           0 NBCPU=           0 AvBCPU=         0.0
           NShGPU=           0 NBGPU=           0 AvBGPU=         0.0
 CoulSu-ThDecC:  IPartSL=    1    0 NPrtUSL=   12    1 IThBeg=    0 IThEnd=   11 CPU=   -1 GPU=   -1 NThAct=   11.
 CoulSu:  IPart=    6 IPartR=    6 CPU=   -1 GPU=   -1.
 Enter PrismC:  IPart=  6 JobTyp=20 DoJE=T Cont=T.
 PrismC:  IPart=     6 DynPar=F LinDyn=F Incr=           1 UseFst=F UseS4=T ISplat=2.
 PrismC was handed   357912717 working-precision words and    10 shell-pairs
 IPart=  2 NShTot=           0 NShNF=           0 NShFF=           0 MinMC=     200
           NShCPU=           0 NBCPU=           0 AvBCPU=         0.0
           NShGPU=           0 NBGPU=           0 AvBGPU=         0.0
 CoulSu-ThDecC:  IPartSL=    2    0 NPrtUSL=   12    1 IThBeg=    0 IThEnd=   11 CPU=   -1 GPU=   -1 NThAct=   10.
 IPart=  3 NShTot=           0 NShNF=           0 NShFF=           0 MinMC=     200
           NShCPU=           0 NBCPU=           0 AvBCPU=         0.0
           NShGPU=           0 NBGPU=           0 AvBGPU=         0.0
 CoulSu-ThDecC:  IPartSL=    3    0 NPrtUSL=   12    1 IThBeg=    0 IThEnd=   11 CPU=   -1 GPU=   -1 NThAct=    9.
 CoulSu:  IPart=    7 IPartR=    7 CPU=   -1 GPU=   -1.
 Enter PrismC:  IPart=  7 JobTyp=20 DoJE=T Cont=T.
 PrismC:  IPart=     7 DynPar=F LinDyn=F Incr=           1 UseFst=F UseS4=T ISplat=2.
 PrismC was handed   357912717 working-precision words and    10 shell-pairs
 IPart=  6 NShTot=           0 NShNF=           0 NShFF=           0 MinMC=     200
           NShCPU=           0 NBCPU=           0 AvBCPU=         0.0
           NShGPU=           0 NBGPU=           0 AvBGPU=         0.0
 CoulSu-ThDecC:  IPartSL=    6    0 NPrtUSL=   12    1 IThBeg=    0 IThEnd=   11 CPU=   -1 GPU=   -1 NThAct=    8.
 IPart=  7 NShTot=           0 NShNF=           0 NShFF=           0 MinMC=     200
           NShCPU=           0 NBCPU=           0 AvBCPU=         0.0
           NShGPU=           0 NBGPU=           0 AvBGPU=         0.0
 CoulSu-ThDecC:  IPartSL=    7    0 NPrtUSL=   12    1 IThBeg=    0 IThEnd=   11 CPU=   -1 GPU=   -1 NThAct=    7.
 CoulSu:  IPart=    8 IPartR=    8 CPU=   -1 GPU=   -1.
 Enter PrismC:  IPart=  8 JobTyp=20 DoJE=T Cont=T.
 PrismC:  IPart=     8 DynPar=F LinDyn=F Incr=           1 UseFst=F UseS4=T ISplat=2.
 PrismC was handed   357912717 working-precision words and    10 shell-pairs
 IPart=  4 NShTot=           0 NShNF=           0 NShFF=           0 MinMC=     200
           NShCPU=           0 NBCPU=           0 AvBCPU=         0.0
           NShGPU=           0 NBGPU=           0 AvBGPU=         0.0
 CoulSu-ThDecC:  IPartSL=    4    0 NPrtUSL=   12    1 IThBeg=    0 IThEnd=   11 CPU=   -1 GPU=   -1 NThAct=    6.
 CoulSu:  IPart=    9 IPartR=    9 CPU=   -1 GPU=   -1.
 Enter PrismC:  IPart=  9 JobTyp=20 DoJE=T Cont=T.
 PrismC:  IPart=     9 DynPar=F LinDyn=F Incr=           1 UseFst=F UseS4=T ISplat=2.
 PrismC was handed   357912717 working-precision words and    10 shell-pairs
 IPart=  5 NShTot=           0 NShNF=           0 NShFF=           0 MinMC=     200
           NShCPU=           0 NBCPU=           0 AvBCPU=         0.0
           NShGPU=           0 NBGPU=           0 AvBGPU=         0.0
 CoulSu-ThDecC:  IPartSL=    5    0 NPrtUSL=   12    1 IThBeg=    0 IThEnd=   11 CPU=   -1 GPU=   -1 NThAct=    5.
 CoulSu:  IPart=   10 IPartR=   10 CPU=   -1 GPU=   -1.
 CoulSu:  IPart=   11 IPartR=   11 CPU=   -1 GPU=   -1.
 Enter PrismC:  IPart= 10 JobTyp=20 DoJE=T Cont=T.
 Enter PrismC:  IPart= 11 JobTyp=20 DoJE=T Cont=T.
 PrismC:  IPart=    10 DynPar=F LinDyn=F Incr=           1 UseFst=F UseS4=T ISplat=2.
 PrismC:  IPart=    11 DynPar=F LinDyn=F Incr=           1 UseFst=F UseS4=T ISplat=2.
 PrismC was handed   357912717 working-precision words and    10 shell-pairs
 PrismC was handed   357912717 working-precision words and    10 shell-pairs
 IPart=  8 NShTot=           0 NShNF=           0 NShFF=           0 MinMC=     200
           NShCPU=           0 NBCPU=           0 AvBCPU=         0.0
           NShGPU=           0 NBGPU=           0 AvBGPU=         0.0
 CoulSu-ThDecC:  IPartSL=    8    0 NPrtUSL=   12    1 IThBeg=    0 IThEnd=   11 CPU=   -1 GPU=   -1 NThAct=    4.
 IPart=  9 NShTot=           0 NShNF=           0 NShFF=           0 MinMC=     200
           NShCPU=           0 NBCPU=           0 AvBCPU=         0.0
           NShGPU=           0 NBGPU=           0 AvBGPU=         0.0
 CoulSu-ThDecC:  IPartSL=    9    0 NPrtUSL=   12    1 IThBeg=    0 IThEnd=   11 CPU=   -1 GPU=   -1 NThAct=    3.
 IPart= 10 NShTot=           0 NShNF=           0 NShFF=           0 MinMC=     200
           NShCPU=           0 NBCPU=           0 AvBCPU=         0.0
           NShGPU=           0 NBGPU=           0 AvBGPU=         0.0
 CoulSu-ThDecC:  IPartSL=   10    0 NPrtUSL=   12    1 IThBeg=    0 IThEnd=   11 CPU=   -1 GPU=   -1 NThAct=    2.
 IPart= 11 NShTot=           0 NShNF=           0 NShFF=           0 MinMC=     200
           NShCPU=           0 NBCPU=           0 AvBCPU=         0.0
           NShGPU=           0 NBGPU=           0 AvBGPU=         0.0
 CoulSu-ThDecC:  IPartSL=   11    0 NPrtUSL=   12    1 IThBeg=    0 IThEnd=   11 CPU=   -1 GPU=   -1 NThAct=    1.
 CoulSu:  NxtVal=             13 LenVP=      357912718 MinMC=     200.
 Entering FocIrr
 FocIrr was handed  4294964567 working-precision words and    10 shell-pairs
 Leaving FocIrr
 Entering DenIrr
 DenIrr was handed  4294966722 working-precision words and    12 shell-pairs
 Leaving DenIrr, iEnd w/o den=        2376 nHerm=          63.
 CoulSu-InSpLW:  IPartL=    0 NPrtUS=   12 NPrtUL=    1 DoSpLW=F IThBeg=    0 IThEnd=   11 NThAct=   12.
 CoulSu:  IncTry=  1024 NBBP=             20 NTPThr=   100 NPartT=   12 Incr=           1 LDynOK=F GPUOK=F.
 CoulSu:  NPrtUS=  12 ThrOK=T IAlg=1 LenDen=          63 LWGrdD=           0 DoCopy=T ISkipM=0
          DoSpLW=F IThBeg=    0 IThEnd=   11.
 CoulSu:  IPart=    1 IPartR=    1 CPU=   -1 GPU=   -1.
 CoulSu:  IPart=    9 IPartR=    9 CPU=   -1 GPU=   -1.
 CoulSu:  IPart=    0 IPartR=    0 CPU=   -1 GPU=   -1.
 CoulSu:  IPart=    8 IPartR=    8 CPU=   -1 GPU=   -1.
 Enter PrismC:  IPart=  1 JobTyp=20 DoJE=T Cont=F.
 Enter PrismC:  IPart=  9 JobTyp=20 DoJE=T Cont=F.
 PrismC:  IPart=     1 DynPar=F LinDyn=F Incr=           1 UseFst=F UseS4=T ISplat=2.
 PrismC was handed   357912595 working-precision words and    10 shell-pairs
 PrismC:  IPart=     9 DynPar=F LinDyn=F Incr=           1 UseFst=F UseS4=T ISplat=2.
 Enter PrismC:  IPart=  0 JobTyp=20 DoJE=T Cont=F.
 PrismC was handed   357912595 working-precision words and    10 shell-pairs
 Enter PrismC:  IPart=  8 JobTyp=20 DoJE=T Cont=F.
 PrismC:  IPart=     0 DynPar=F LinDyn=F Incr=           1 UseFst=F UseS4=T ISplat=2.
 PrismC was handed   357912595 working-precision words and    10 shell-pairs
 PrismC:  IPart=     8 DynPar=F LinDyn=F Incr=           1 UseFst=F UseS4=T ISplat=2.
 PrismC was handed   357912595 working-precision words and    10 shell-pairs
 CoulSu:  IPart=   10 IPartR=   10 CPU=   -1 GPU=   -1.
 CoulSu:  IPart=   11 IPartR=   11 CPU=   -1 GPU=   -1.
 Enter PrismC:  IPart= 10 JobTyp=20 DoJE=T Cont=F.
 Enter PrismC:  IPart= 11 JobTyp=20 DoJE=T Cont=F.
 PrismC:  IPart=    10 DynPar=F LinDyn=F Incr=           1 UseFst=F UseS4=T ISplat=2.
 PrismC was handed   357912595 working-precision words and    10 shell-pairs
 PrismC:  IPart=    11 DynPar=F LinDyn=F Incr=           1 UseFst=F UseS4=T ISplat=2.
 PrismC was handed   357912595 working-precision words and    10 shell-pairs
 IPart=  1 NShTot=           0 NShNF=           0 NShFF=           0 MinMC=     180
           NShCPU=           0 NBCPU=           0 AvBCPU=         0.0
           NShGPU=           0 NBGPU=           0 AvBGPU=         0.0
 CoulSu-ThDecC:  IPartSL=    1    0 NPrtUSL=   12    1 IThBeg=    0 IThEnd=   11 CPU=   -1 GPU=   -1 NThAct=   12.
 IPart=  0 NShTot=           0 NShNF=           0 NShFF=           0 MinMC=     180
           NShCPU=           0 NBCPU=           0 AvBCPU=         0.0
           NShGPU=           0 NBGPU=           0 AvBGPU=         0.0
 CoulSu-ThDecC:  IPartSL=    0    0 NPrtUSL=   12    1 IThBeg=    0 IThEnd=   11 CPU=   -1 GPU=   -1 NThAct=   11.
 IPart=  8 NShTot=           0 NShNF=           0 NShFF=           0 MinMC=     180
           NShCPU=           0 NBCPU=           0 AvBCPU=         0.0
           NShGPU=           0 NBGPU=           0 AvBGPU=         0.0
 CoulSu-ThDecC:  IPartSL=    8    0 NPrtUSL=   12    1 IThBeg=    0 IThEnd=   11 CPU=   -1 GPU=   -1 NThAct=   10.
 IPart=  9 NShTot=           0 NShNF=           0 NShFF=           0 MinMC=     180
           NShCPU=           0 NBCPU=           0 AvBCPU=         0.0
           NShGPU=           0 NBGPU=           0 AvBGPU=         0.0
 CoulSu-ThDecC:  IPartSL=    9    0 NPrtUSL=   12    1 IThBeg=    0 IThEnd=   11 CPU=   -1 GPU=   -1 NThAct=    9.
 CoulSu:  IPart=    3 IPartR=    3 CPU=   -1 GPU=   -1.
 CoulSu:  IPart=    2 IPartR=    2 CPU=   -1 GPU=   -1.
 Enter PrismC:  IPart=  3 JobTyp=20 DoJE=T Cont=F.
 Enter PrismC:  IPart=  2 JobTyp=20 DoJE=T Cont=F.
 PrismC:  IPart=     3 DynPar=F LinDyn=F Incr=           1 UseFst=F UseS4=T ISplat=2.
 PrismC:  IPart=     2 DynPar=F LinDyn=F Incr=           1 UseFst=F UseS4=T ISplat=2.
 PrismC was handed   357912595 working-precision words and    10 shell-pairs
 PrismC was handed   357912595 working-precision words and    10 shell-pairs
 IPart= 10 NShTot=           0 NShNF=           0 NShFF=           0 MinMC=     180
           NShCPU=           0 NBCPU=           0 AvBCPU=         0.0
           NShGPU=           0 NBGPU=           0 AvBGPU=         0.0
 CoulSu-ThDecC:  IPartSL=   10    0 NPrtUSL=   12    1 IThBeg=    0 IThEnd=   11 CPU=   -1 GPU=   -1 NThAct=    8.
 IPart= 11 NShTot=           0 NShNF=           0 NShFF=           0 MinMC=     180
           NShCPU=           0 NBCPU=           0 AvBCPU=         0.0
           NShGPU=           0 NBGPU=           0 AvBGPU=         0.0
 CoulSu-ThDecC:  IPartSL=   11    0 NPrtUSL=   12    1 IThBeg=    0 IThEnd=   11 CPU=   -1 GPU=   -1 NThAct=    7.
 IPart=  2 NShTot=           0 NShNF=           0 NShFF=           0 MinMC=     180
           NShCPU=           0 NBCPU=           0 AvBCPU=         0.0
           NShGPU=           0 NBGPU=           0 AvBGPU=         0.0
 CoulSu-ThDecC:  IPartSL=    2    0 NPrtUSL=   12    1 IThBeg=    0 IThEnd=   11 CPU=   -1 GPU=   -1 NThAct=    6.
 IPart=  3 NShTot=           0 NShNF=           0 NShFF=           0 MinMC=     180
           NShCPU=           0 NBCPU=           0 AvBCPU=         0.0
           NShGPU=           0 NBGPU=           0 AvBGPU=         0.0
 CoulSu-ThDecC:  IPartSL=    3    0 NPrtUSL=   12    1 IThBeg=    0 IThEnd=   11 CPU=   -1 GPU=   -1 NThAct=    5.
 CoulSu:  IPart=    6 IPartR=    6 CPU=   -1 GPU=   -1.
 CoulSu:  IPart=    4 IPartR=    4 CPU=   -1 GPU=   -1.
 Enter PrismC:  IPart=  6 JobTyp=20 DoJE=T Cont=F.
 CoulSu:  IPart=    7 IPartR=    7 CPU=   -1 GPU=   -1.
 PrismC:  IPart=     6 DynPar=F LinDyn=F Incr=           1 UseFst=F UseS4=T ISplat=2.
 PrismC was handed   357912595 working-precision words and    10 shell-pairs
 Enter PrismC:  IPart=  4 JobTyp=20 DoJE=T Cont=F.
 Enter PrismC:  IPart=  7 JobTyp=20 DoJE=T Cont=F.
 PrismC:  IPart=     4 DynPar=F LinDyn=F Incr=           1 UseFst=F UseS4=T ISplat=2.
 PrismC was handed   357912595 working-precision words and    10 shell-pairs
 PrismC:  IPart=     7 DynPar=F LinDyn=F Incr=           1 UseFst=F UseS4=T ISplat=2.
 PrismC was handed   357912595 working-precision words and    10 shell-pairs
 CoulSu:  IPart=    5 IPartR=    5 CPU=   -1 GPU=   -1.
 Enter PrismC:  IPart=  5 JobTyp=20 DoJE=T Cont=F.
 PrismC:  IPart=     5 DynPar=F LinDyn=F Incr=           1 UseFst=F UseS4=T ISplat=2.
 PrismC was handed   357912595 working-precision words and    10 shell-pairs
 IPart=  6 NShTot=           0 NShNF=           0 NShFF=           0 MinMC=     180
           NShCPU=           0 NBCPU=           0 AvBCPU=         0.0
           NShGPU=           0 NBGPU=           0 AvBGPU=         0.0
 CoulSu-ThDecC:  IPartSL=    6    0 NPrtUSL=   12    1 IThBeg=    0 IThEnd=   11 CPU=   -1 GPU=   -1 NThAct=    4.
 IPart=  4 NShTot=           0 NShNF=           0 NShFF=           0 MinMC=     180
           NShCPU=           0 NBCPU=           0 AvBCPU=         0.0
           NShGPU=           0 NBGPU=           0 AvBGPU=         0.0
 CoulSu-ThDecC:  IPartSL=    4    0 NPrtUSL=   12    1 IThBeg=    0 IThEnd=   11 CPU=   -1 GPU=   -1 NThAct=    3.
 IPart=  7 NShTot=           0 NShNF=           0 NShFF=           0 MinMC=     180
           NShCPU=           0 NBCPU=           0 AvBCPU=         0.0
           NShGPU=           0 NBGPU=           0 AvBGPU=         0.0
 CoulSu-ThDecC:  IPartSL=    7    0 NPrtUSL=   12    1 IThBeg=    0 IThEnd=   11 CPU=   -1 GPU=   -1 NThAct=    2.
 IPart=  5 NShTot=           0 NShNF=           0 NShFF=           0 MinMC=     180
           NShCPU=           0 NBCPU=           0 AvBCPU=         0.0
           NShGPU=           0 NBGPU=           0 AvBGPU=         0.0
 CoulSu-ThDecC:  IPartSL=    5    0 NPrtUSL=   12    1 IThBeg=    0 IThEnd=   11 CPU=   -1 GPU=   -1 NThAct=    1.
 CoulSu:  NxtVal=             13 LenVP=      357912596 MinMC=     180.
 Entering FocIrr
 FocIrr was handed  4294964221 working-precision words and    10 shell-pairs
 Leaving FocIrr
 FoFCou: FMM=F IPFlag=           0 FMFlag=      100000 FMFlg1=           0
         NFxFlg=           0 DoJE=T BraDBF=T KetDBF=T FulRan=T
         wScrn=  0.000000 ICntrl=       500 IOpCl=  0 I1Cent=   200000006 NGrid=           0
         NMat0=    1 NMatS0=      1 NMatT0=    0 NMatD0=    1 NMtDS0=    0 NMtDT0=    0
 Symmetry not used in FoFCou.
 FoFCou:  KetSym=T NOpSet=  1 NOpAb=1 NOp=  1.
 FoFCou:  CnvScl= 1.00D+00 Thresh= 1.00D-12 IAcrcy=      10.
 FoFCou: LinMIO=F DoNuc=F BraDBF=T KetDBF=T HaveP=T PDBF=T HaveZ=F HaveW=F
         NIJTC =       0 NIJTAt=       0 NIJTCD=       1 NIJTT =       1
         IJTBeg=       1 IJTEnd=       1 KLTBeg=       1 KLTEnd=       1
         IPTBeg=       1 IPTEnd=       1 IPTBCv=       1 IPTECv=       1
         IZTBeg=       1 IZTEnd=       0 IZTBCv=       1 IZTECv=       1
         IWTBeg=       1 IWTEnd=       1 IWTBCv=       1 IWTECv=       1
         INTBeg=       1 INTEnd=       0 IFTBCv=       1 IFTECv=       1
 Entering DenIrr
 DenIrr was handed  4294966722 working-precision words and     2 shell-pairs
 Leaving DenIrr, iEnd w/o den=        1215 nHerm=           2.
 CoulSu-InSpLW:  IPartL=    0 NPrtUS=   12 NPrtUL=    1 DoSpLW=F IThBeg=    0 IThEnd=   11 NThAct=   12.
 CoulSu:  IncTry=  1024 NBBP=              4 NTPThr=   100 NPartT=   12 Incr=           1 LDynOK=F GPUOK=F.
 CoulSu:  NPrtUS=  12 ThrOK=T IAlg=1 LenDen=           2 LWGrdD=           0 DoCopy=T ISkipM=0
          DoSpLW=F IThBeg=    0 IThEnd=   11.
 CoulSu:  IPart=    0 IPartR=    0 CPU=   -1 GPU=   -1.
 CoulSu:  IPart=    4 IPartR=    4 CPU=   -1 GPU=   -1.
 Enter PrismC:  IPart=  0 JobTyp=20 DoJE=T Cont=T.
 CoulSu:  IPart=    1 IPartR=    1 CPU=   -1 GPU=   -1.
 PrismC:  IPart=     0 DynPar=F LinDyn=F Incr=           1 UseFst=F UseS4=T ISplat=2.
 CoulSu:  IPart=    2 IPartR=    2 CPU=   -1 GPU=   -1.
 PrismC was handed   357913122 working-precision words and     2 shell-pairs
 CoulSu:  IPart=    3 IPartR=    3 CPU=   -1 GPU=   -1.
 Enter PrismC:  IPart=  4 JobTyp=20 DoJE=T Cont=T.
 Enter PrismC:  IPart=  3 JobTyp=20 DoJE=T Cont=T.
 PrismC:  IPart=     4 DynPar=F LinDyn=F Incr=           1 UseFst=F UseS4=T ISplat=2.
 PrismC:  IPart=     3 DynPar=F LinDyn=F Incr=           1 UseFst=F UseS4=T ISplat=2.
 PrismC was handed   357913122 working-precision words and     2 shell-pairs
 PrismC was handed   357913122 working-precision words and     2 shell-pairs
 Enter PrismC:  IPart=  2 JobTyp=20 DoJE=T Cont=T.
 Enter PrismC:  IPart=  1 JobTyp=20 DoJE=T Cont=T.
 PrismC:  IPart=     2 DynPar=F LinDyn=F Incr=           1 UseFst=F UseS4=T ISplat=2.
 PrismC was handed   357913122 working-precision words and     2 shell-pairs
 PrismC:  IPart=     1 DynPar=F LinDyn=F Incr=           1 UseFst=F UseS4=T ISplat=2.
 PrismC was handed   357913122 working-precision words and     2 shell-pairs
 IPart=  4 NShTot=           0 NShNF=           0 NShFF=           0 MinMC=     164
           NShCPU=           0 NBCPU=           0 AvBCPU=         0.0
           NShGPU=           0 NBGPU=           0 AvBGPU=         0.0
 IPart=  3 NShTot=           0 NShNF=           0 NShFF=           0 MinMC=     164
           NShCPU=           0 NBCPU=           0 AvBCPU=         0.0
           NShGPU=           0 NBGPU=           0 AvBGPU=         0.0
 CoulSu-ThDecC:  IPartSL=    4    0 NPrtUSL=   12    1 IThBeg=    0 IThEnd=   11 CPU=   -1 GPU=   -1 NThAct=   12.
 IPart=  2 NShTot=           0 NShNF=           0 NShFF=           0 MinMC=     164
           NShCPU=           0 NBCPU=           0 AvBCPU=         0.0
           NShGPU=           0 NBGPU=           0 AvBGPU=         0.0
 IPart=  0 NShTot=           4 NShNF=           4 NShFF=           0 MinMC=     164
           NShCPU=           4 NBCPU=           4 AvBCPU=         1.0
           NShGPU=           0 NBGPU=           0 AvBGPU=         0.0
 CoulSu-ThDecC:  IPartSL=    3    0 NPrtUSL=   12    1 IThBeg=    0 IThEnd=   11 CPU=   -1 GPU=   -1 NThAct=   11.
 CoulSu-ThDecC:  IPartSL=    0    0 NPrtUSL=   12    1 IThBeg=    0 IThEnd=   11 CPU=   -1 GPU=   -1 NThAct=   10.
 CoulSu-ThDecC:  IPartSL=    2    0 NPrtUSL=   12    1 IThBeg=    0 IThEnd=   11 CPU=   -1 GPU=   -1 NThAct=    9.
 IPart=  1 NShTot=           0 NShNF=           0 NShFF=           0 MinMC=     164
           NShCPU=           0 NBCPU=           0 AvBCPU=         0.0
           NShGPU=           0 NBGPU=           0 AvBGPU=         0.0
 CoulSu-ThDecC:  IPartSL=    1    0 NPrtUSL=   12    1 IThBeg=    0 IThEnd=   11 CPU=   -1 GPU=   -1 NThAct=    8.
 CoulSu:  IPart=    8 IPartR=    8 CPU=   -1 GPU=   -1.
 Enter PrismC:  IPart=  8 JobTyp=20 DoJE=T Cont=T.
 PrismC:  IPart=     8 DynPar=F LinDyn=F Incr=           1 UseFst=F UseS4=T ISplat=2.
 PrismC was handed   357913122 working-precision words and     2 shell-pairs
 CoulSu:  IPart=    6 IPartR=    6 CPU=   -1 GPU=   -1.
 Enter PrismC:  IPart=  6 JobTyp=20 DoJE=T Cont=T.
 PrismC:  IPart=     6 DynPar=F LinDyn=F Incr=           1 UseFst=F UseS4=T ISplat=2.
 PrismC was handed   357913122 working-precision words and     2 shell-pairs
 CoulSu:  IPart=    7 IPartR=    7 CPU=   -1 GPU=   -1.
 Enter PrismC:  IPart=  7 JobTyp=20 DoJE=T Cont=T.
 PrismC:  IPart=     7 DynPar=F LinDyn=F Incr=           1 UseFst=F UseS4=T ISplat=2.
 PrismC was handed   357913122 working-precision words and     2 shell-pairs
 IPart=  8 NShTot=           0 NShNF=           0 NShFF=           0 MinMC=     164
           NShCPU=           0 NBCPU=           0 AvBCPU=         0.0
           NShGPU=           0 NBGPU=           0 AvBGPU=         0.0
 CoulSu-ThDecC:  IPartSL=    8    0 NPrtUSL=   12    1 IThBeg=    0 IThEnd=   11 CPU=   -1 GPU=   -1 NThAct=    7.
 IPart=  6 NShTot=           0 NShNF=           0 NShFF=           0 MinMC=     164
           NShCPU=           0 NBCPU=           0 AvBCPU=         0.0
           NShGPU=           0 NBGPU=           0 AvBGPU=         0.0
 CoulSu-ThDecC:  IPartSL=    6    0 NPrtUSL=   12    1 IThBeg=    0 IThEnd=   11 CPU=   -1 GPU=   -1 NThAct=    6.
 IPart=  7 NShTot=           0 NShNF=           0 NShFF=           0 MinMC=     164
           NShCPU=           0 NBCPU=           0 AvBCPU=         0.0
           NShGPU=           0 NBGPU=           0 AvBGPU=         0.0
 CoulSu-ThDecC:  IPartSL=    7    0 NPrtUSL=   12    1 IThBeg=    0 IThEnd=   11 CPU=   -1 GPU=   -1 NThAct=    5.
 CoulSu:  IPart=    9 IPartR=    9 CPU=   -1 GPU=   -1.
 CoulSu:  IPart=   10 IPartR=   10 CPU=   -1 GPU=   -1.
 CoulSu:  IPart=    5 IPartR=    5 CPU=   -1 GPU=   -1.
 Enter PrismC:  IPart=  9 JobTyp=20 DoJE=T Cont=T.
 Enter PrismC:  IPart= 10 JobTyp=20 DoJE=T Cont=T.
 PrismC:  IPart=     9 DynPar=F LinDyn=F Incr=           1 UseFst=F UseS4=T ISplat=2.
 PrismC was handed   357913122 working-precision words and     2 shell-pairs
 PrismC:  IPart=    10 DynPar=F LinDyn=F Incr=           1 UseFst=F UseS4=T ISplat=2.
 Enter PrismC:  IPart=  5 JobTyp=20 DoJE=T Cont=T.
 PrismC was handed   357913122 working-precision words and     2 shell-pairs
 PrismC:  IPart=     5 DynPar=F LinDyn=F Incr=           1 UseFst=F UseS4=T ISplat=2.
 PrismC was handed   357913122 working-precision words and     2 shell-pairs
 CoulSu:  IPart=   11 IPartR=   11 CPU=   -1 GPU=   -1.
 Enter PrismC:  IPart= 11 JobTyp=20 DoJE=T Cont=T.
 PrismC:  IPart=    11 DynPar=F LinDyn=F Incr=           1 UseFst=F UseS4=T ISplat=2.
 PrismC was handed   357913122 working-precision words and     2 shell-pairs
 IPart=  9 NShTot=           0 NShNF=           0 NShFF=           0 MinMC=     164
           NShCPU=           0 NBCPU=           0 AvBCPU=         0.0
           NShGPU=           0 NBGPU=           0 AvBGPU=         0.0
 CoulSu-ThDecC:  IPartSL=    9    0 NPrtUSL=   12    1 IThBeg=    0 IThEnd=   11 CPU=   -1 GPU=   -1 NThAct=    4.
 IPart=  5 NShTot=           0 NShNF=           0 NShFF=           0 MinMC=     164
           NShCPU=           0 NBCPU=           0 AvBCPU=         0.0
           NShGPU=           0 NBGPU=           0 AvBGPU=         0.0
 IPart= 10 NShTot=           0 NShNF=           0 NShFF=           0 MinMC=     164
           NShCPU=           0 NBCPU=           0 AvBCPU=         0.0
           NShGPU=           0 NBGPU=           0 AvBGPU=         0.0
 CoulSu-ThDecC:  IPartSL=    5    0 NPrtUSL=   12    1 IThBeg=    0 IThEnd=   11 CPU=   -1 GPU=   -1 NThAct=    3.
 CoulSu-ThDecC:  IPartSL=   10    0 NPrtUSL=   12    1 IThBeg=    0 IThEnd=   11 CPU=   -1 GPU=   -1 NThAct=    2.
 IPart= 11 NShTot=           0 NShNF=           0 NShFF=           0 MinMC=     164
           NShCPU=           0 NBCPU=           0 AvBCPU=         0.0
           NShGPU=           0 NBGPU=           0 AvBGPU=         0.0
 CoulSu-ThDecC:  IPartSL=   11    0 NPrtUSL=   12    1 IThBeg=    0 IThEnd=   11 CPU=   -1 GPU=   -1 NThAct=    1.
 CoulSu:  NxtVal=             13 LenVP=      357913123 MinMC=     164.
 Entering FocIrr
 FocIrr was handed  4294965504 working-precision words and     2 shell-pairs
 Leaving FocIrr
 Entering DenIrr
 DenIrr was handed  4294966722 working-precision words and     2 shell-pairs
 Leaving DenIrr, iEnd w/o den=        1273 nHerm=          21.
 CoulSu-InSpLW:  IPartL=    0 NPrtUS=   12 NPrtUL=    1 DoSpLW=F IThBeg=    0 IThEnd=   11 NThAct=   12.
 CoulSu:  IncTry=  1024 NBBP=              4 NTPThr=   100 NPartT=   12 Incr=           1 LDynOK=F GPUOK=F.
 CoulSu:  NPrtUS=  12 ThrOK=T IAlg=1 LenDen=          21 LWGrdD=           0 DoCopy=T ISkipM=0
          DoSpLW=F IThBeg=    0 IThEnd=   11.
 CoulSu:  IPart=    0 IPartR=    0 CPU=   -1 GPU=   -1.
 CoulSu:  IPart=    4 IPartR=    4 CPU=   -1 GPU=   -1.
 CoulSu:  IPart=    1 IPartR=    1 CPU=   -1 GPU=   -1.
 Enter PrismC:  IPart=  0 JobTyp=20 DoJE=T Cont=F.
 CoulSu:  IPart=    3 IPartR=    3 CPU=   -1 GPU=   -1.
 PrismC:  IPart=     0 DynPar=F LinDyn=F Incr=           1 UseFst=F UseS4=T ISplat=2.
 PrismC was handed   357913079 working-precision words and     2 shell-pairs
 CoulSu:  IPart=    5 IPartR=    5 CPU=   -1 GPU=   -1.
 Enter PrismC:  IPart=  1 JobTyp=20 DoJE=T Cont=F.
 CoulSu:  IPart=    2 IPartR=    2 CPU=   -1 GPU=   -1.
 PrismC:  IPart=     1 DynPar=F LinDyn=F Incr=           1 UseFst=F UseS4=T ISplat=2.
 PrismC was handed   357913079 working-precision words and     2 shell-pairs
 Enter PrismC:  IPart=  5 JobTyp=20 DoJE=T Cont=F.
 Enter PrismC:  IPart=  4 JobTyp=20 DoJE=T Cont=F.
 PrismC:  IPart=     5 DynPar=F LinDyn=F Incr=           1 UseFst=F UseS4=T ISplat=2.
 PrismC was handed   357913079 working-precision words and     2 shell-pairs
 PrismC:  IPart=     4 DynPar=F LinDyn=F Incr=           1 UseFst=F UseS4=T ISplat=2.
 PrismC was handed   357913079 working-precision words and     2 shell-pairs
 Enter PrismC:  IPart=  3 JobTyp=20 DoJE=T Cont=F.
 Enter PrismC:  IPart=  2 JobTyp=20 DoJE=T Cont=F.
 PrismC:  IPart=     3 DynPar=F LinDyn=F Incr=           1 UseFst=F UseS4=T ISplat=2.
 PrismC was handed   357913079 working-precision words and     2 shell-pairs
 PrismC:  IPart=     2 DynPar=F LinDyn=F Incr=           1 UseFst=F UseS4=T ISplat=2.
 PrismC was handed   357913079 working-precision words and     2 shell-pairs
 IPart=  0 NShTot=           0 NShNF=           0 NShFF=           0 MinMC=     148
           NShCPU=           0 NBCPU=           0 AvBCPU=         0.0
           NShGPU=           0 NBGPU=           0 AvBGPU=         0.0
 CoulSu-ThDecC:  IPartSL=    0    0 NPrtUSL=   12    1 IThBeg=    0 IThEnd=   11 CPU=   -1 GPU=   -1 NThAct=   12.
 IPart=  1 NShTot=           0 NShNF=           0 NShFF=           0 MinMC=     148
           NShCPU=           0 NBCPU=           0 AvBCPU=         0.0
           NShGPU=           0 NBGPU=           0 AvBGPU=         0.0
 CoulSu-ThDecC:  IPartSL=    1    0 NPrtUSL=   12    1 IThBeg=    0 IThEnd=   11 CPU=   -1 GPU=   -1 NThAct=   11.
 IPart=  5 NShTot=           0 NShNF=           0 NShFF=           0 MinMC=     148
           NShCPU=           0 NBCPU=           0 AvBCPU=         0.0
           NShGPU=           0 NBGPU=           0 AvBGPU=         0.0
 CoulSu-ThDecC:  IPartSL=    5    0 NPrtUSL=   12    1 IThBeg=    0 IThEnd=   11 CPU=   -1 GPU=   -1 NThAct=   10.
 IPart=  2 NShTot=           0 NShNF=           0 NShFF=           0 MinMC=     148
           NShCPU=           0 NBCPU=           0 AvBCPU=         0.0
           NShGPU=           0 NBGPU=           0 AvBGPU=         0.0
 CoulSu-ThDecC:  IPartSL=    2    0 NPrtUSL=   12    1 IThBeg=    0 IThEnd=   11 CPU=   -1 GPU=   -1 NThAct=    9.
 IPart=  3 NShTot=           0 NShNF=           0 NShFF=           0 MinMC=     148
           NShCPU=           0 NBCPU=           0 AvBCPU=         0.0
           NShGPU=           0 NBGPU=           0 AvBGPU=         0.0
 CoulSu-ThDecC:  IPartSL=    3    0 NPrtUSL=   12    1 IThBeg=    0 IThEnd=   11 CPU=   -1 GPU=   -1 NThAct=    8.
 IPart=  4 NShTot=           0 NShNF=           0 NShFF=           0 MinMC=     148
           NShCPU=           0 NBCPU=           0 AvBCPU=         0.0
           NShGPU=           0 NBGPU=           0 AvBGPU=         0.0
 CoulSu-ThDecC:  IPartSL=    4    0 NPrtUSL=   12    1 IThBeg=    0 IThEnd=   11 CPU=   -1 GPU=   -1 NThAct=    7.
 CoulSu:  IPart=    6 IPartR=    6 CPU=   -1 GPU=   -1.
 CoulSu:  IPart=    7 IPartR=    7 CPU=   -1 GPU=   -1.
 Enter PrismC:  IPart=  6 JobTyp=20 DoJE=T Cont=F.
 Enter PrismC:  IPart=  7 JobTyp=20 DoJE=T Cont=F.
 PrismC:  IPart=     6 DynPar=F LinDyn=F Incr=           1 UseFst=F UseS4=T ISplat=2.
 PrismC was handed   357913079 working-precision words and     2 shell-pairs
 PrismC:  IPart=     7 DynPar=F LinDyn=F Incr=           1 UseFst=F UseS4=T ISplat=2.
 PrismC was handed   357913079 working-precision words and     2 shell-pairs
 CoulSu:  IPart=    8 IPartR=    8 CPU=   -1 GPU=   -1.
 Enter PrismC:  IPart=  8 JobTyp=20 DoJE=T Cont=F.
 PrismC:  IPart=     8 DynPar=F LinDyn=F Incr=           1 UseFst=F UseS4=T ISplat=2.
 PrismC was handed   357913079 working-precision words and     2 shell-pairs
 CoulSu:  IPart=    9 IPartR=    9 CPU=   -1 GPU=   -1.
 Enter PrismC:  IPart=  9 JobTyp=20 DoJE=T Cont=F.
 PrismC:  IPart=     9 DynPar=F LinDyn=F Incr=           1 UseFst=F UseS4=T ISplat=2.
 PrismC was handed   357913079 working-precision words and     2 shell-pairs
 IPart=  6 NShTot=           0 NShNF=           0 NShFF=           0 MinMC=     148
           NShCPU=           0 NBCPU=           0 AvBCPU=         0.0
           NShGPU=           0 NBGPU=           0 AvBGPU=         0.0
 CoulSu-ThDecC:  IPartSL=    6    0 NPrtUSL=   12    1 IThBeg=    0 IThEnd=   11 CPU=   -1 GPU=   -1 NThAct=    6.
 IPart=  7 NShTot=           0 NShNF=           0 NShFF=           0 MinMC=     148
           NShCPU=           0 NBCPU=           0 AvBCPU=         0.0
           NShGPU=           0 NBGPU=           0 AvBGPU=         0.0
 CoulSu-ThDecC:  IPartSL=    7    0 NPrtUSL=   12    1 IThBeg=    0 IThEnd=   11 CPU=   -1 GPU=   -1 NThAct=    5.
 IPart=  8 NShTot=           0 NShNF=           0 NShFF=           0 MinMC=     148
           NShCPU=           0 NBCPU=           0 AvBCPU=         0.0
           NShGPU=           0 NBGPU=           0 AvBGPU=         0.0
 CoulSu-ThDecC:  IPartSL=    8    0 NPrtUSL=   12    1 IThBeg=    0 IThEnd=   11 CPU=   -1 GPU=   -1 NThAct=    4.
 CoulSu:  IPart=   10 IPartR=   10 CPU=   -1 GPU=   -1.
[...]
      4  -0.289676D-01  0.904216D-01  0.118368D+00 -0.167468D+00
 Transition densities among all excited states written to RWF  633
 Left alpha transition density to state          1
                 1             2             3             4 
      1   0.104039D+00 -0.139358D-02  0.277333D+00  0.170680D+00
      2   0.236876D+00 -0.317290D-02  0.631432D+00  0.388604D+00
      3  -0.523818D-01  0.701642D-03 -0.139632D+00 -0.859344D-01
      4  -0.187245D+00  0.250811D-02 -0.499133D+00 -0.307183D+00
 Left beta transition density to state          1
                 1             2             3             4 
      1   0.104039D+00 -0.139358D-02  0.277333D+00  0.170680D+00
      2   0.236876D+00 -0.317290D-02  0.631432D+00  0.388604D+00
      3  -0.523818D-01  0.701642D-03 -0.139632D+00 -0.859344D-01
      4  -0.187245D+00  0.250811D-02 -0.499133D+00 -0.307183D+00
 Left alpha transition density to state          2
                 1             2             3             4 
      1   0.271115D+00 -0.363153D-02  0.722704D+00  0.444776D+00
      2  -0.246243D+00  0.329836D-02 -0.656401D+00 -0.403971D+00
      3   0.327781D-01 -0.439055D-03  0.873756D-01  0.537738D-01
      4  -0.455209D-01  0.609742D-03 -0.121344D+00 -0.746788D-01
 Left beta transition density to state          2
                 1             2             3             4 
      1   0.271115D+00 -0.363153D-02  0.722704D+00  0.444776D+00
      2  -0.246243D+00  0.329836D-02 -0.656401D+00 -0.403971D+00
      3   0.327781D-01 -0.439055D-03  0.873756D-01  0.537738D-01
      4  -0.455209D-01  0.609742D-03 -0.121344D+00 -0.746788D-01
 Left alpha transition density to state          3
                 1             2             3             4 
      1   0.648371D-01 -0.868478D-03  0.172834D+00  0.106368D+00
      2  -0.202388D+00  0.271094D-02 -0.539498D+00 -0.332025D+00
      3  -0.264938D+00  0.354879D-02 -0.706237D+00 -0.434642D+00
      4   0.374838D+00 -0.502087D-02  0.999193D+00  0.614937D+00
 Left beta transition density to state          3
                 1             2             3             4 
      1   0.648371D-01 -0.868478D-03  0.172834D+00  0.106368D+00
      2  -0.202388D+00  0.271094D-02 -0.539498D+00 -0.332025D+00
      3  -0.264938D+00  0.354879D-02 -0.706237D+00 -0.434642D+00
      4   0.374838D+00 -0.502087D-02  0.999193D+00  0.614937D+00
 Ground to excited state transition electric dipole moments (Au):
       state          X           Y           Z        Dip. S.      Osc.
         1        -0.0000     -0.0000      0.8210      0.6740      0.4625
         2        -0.0000     -0.0000      0.4366      0.1907      0.2095
         3        -0.0000     -0.0000     -0.0008      0.0000      0.0000
 Ground to excited state transition velocity dipole moments (Au):
       state          X           Y           Z        Dip. S.      Osc.
         1         0.0000      0.0000     -0.6145      0.3776      0.2446
         2         0.0000      0.0000     -0.3811      0.1452      0.0587
         3         0.0000      0.0000      0.0767      0.0059      0.0017
 Ground to excited state transition magnetic dipole moments (Au):
       state          X           Y           Z
         1         0.0000      0.0000      0.0000
         2         0.0000      0.0000      0.0000
         3         0.0000      0.0000      0.0000
 Ground to excited state transition velocity quadrupole moments (Au):
       state          XX          YY          ZZ          XY          XZ          YZ
         1         0.1857      0.1857      0.0169      0.0000      0.0000      0.0000
         2        -0.6821     -0.6821     -0.4879      0.0000      0.0000      0.0000
         3         0.5514      0.5514      0.5433      0.0000      0.0000      0.0000
 <0|del|b> * <b|rxdel|0> + <0|del|b> * <b|delr+rdel|0>
 Rotatory Strengths (R) in cgs (10**-40 erg-esu-cm/Gauss)
       state          XX          YY          ZZ    R(velocity)    E-M Angle
         1         0.0000      0.0000      0.0000      0.0000       90.00
         2         0.0000      0.0000      0.0000      0.0000       90.00
         3         0.0000      0.0000      0.0000      0.0000       90.00
 <0|del|b> * <b|rxdel|0> + <0|del|b> * <b|delr+rdel|0>
 Rotatory Strength tensors in cgs (10**-40 erg-esu-cm/Gauss)
 R = Rm + Rq, Rm = electric dipole-magnetic dipole component
 Rq = electric dipole-electric quadrupole component
 Total R(velocity) tensor for State=          1
                 1             2             3 
      1   0.000000D+00  0.392083D+02  0.000000D+00
      2  -0.392083D+02  0.000000D+00  0.000000D+00
      3   0.000000D+00  0.000000D+00  0.000000D+00
   Rm(velocity) tensor for State=          1
                 1             2             3 
      1   0.000000D+00  0.000000D+00  0.000000D+00
      2   0.000000D+00  0.000000D+00  0.000000D+00
      3   0.000000D+00  0.000000D+00  0.000000D+00
   Rq(velocity) tensor for State=          1
                 1             2             3 
      1   0.000000D+00  0.392083D+02  0.000000D+00
      2  -0.392083D+02  0.000000D+00  0.000000D+00
      3   0.000000D+00  0.000000D+00  0.000000D+00
 Total R(velocity) tensor for State=          2
                 1             2             3 
      1   0.000000D+00 -0.557633D+02  0.000000D+00
      2   0.557633D+02  0.000000D+00  0.000000D+00
      3   0.000000D+00  0.000000D+00  0.000000D+00
   Rm(velocity) tensor for State=          2
                 1             2             3 
      1   0.000000D+00  0.000000D+00  0.000000D+00
      2   0.000000D+00  0.000000D+00  0.000000D+00
      3   0.000000D+00  0.000000D+00  0.000000D+00
   Rq(velocity) tensor for State=          2
                 1             2             3 
      1   0.000000D+00 -0.557633D+02  0.000000D+00
      2   0.557633D+02  0.000000D+00  0.000000D+00
      3   0.000000D+00  0.000000D+00  0.000000D+00
 Total R(velocity) tensor for State=          3
                 1             2             3 
      1   0.000000D+00 -0.656418D+01  0.000000D+00
      2   0.656418D+01  0.000000D+00  0.000000D+00
      3   0.000000D+00  0.000000D+00  0.000000D+00
   Rm(velocity) tensor for State=          3
                 1             2             3 
      1   0.000000D+00  0.000000D+00  0.000000D+00
      2   0.000000D+00  0.000000D+00  0.000000D+00
      3   0.000000D+00  0.000000D+00  0.000000D+00
   Rq(velocity) tensor for State=          3
                 1             2             3 
      1   0.000000D+00 -0.656418D+01  0.000000D+00
      2   0.656418D+01  0.000000D+00  0.000000D+00
      3   0.000000D+00  0.000000D+00  0.000000D+00
 1/2[<0|r|b>*<b|rxdel|0> + (<0|rxdel|b>*<b|r|0>)*]
 Rotatory Strengths (R) in cgs (10**-40 erg-esu-cm/Gauss)
       state          XX          YY          ZZ     R(length)
         1         0.0000      0.0000     -0.0000     -0.0000
         2         0.0000      0.0000     -0.0000     -0.0000
         3         0.0000      0.0000      0.0000      0.0000
  1/2[<0|del|b>*<b|r|0> + (<0|r|b>*<b|del|0>)*] (Au)
       state          X           Y           Z        Dip. S.   Osc.(frdel)
         1        -0.0000     -0.0000     -0.5045      0.5045      0.3363
         2        -0.0000     -0.0000     -0.1664      0.1664      0.1109
         3        -0.0000     -0.0000     -0.0001      0.0001      0.0000

 Alpha transition density matrix between excited states   2 and   1
                 1             2             3             4 
      1   0.276839D+00 -0.251441D+00  0.334701D-01 -0.464819D-01
      2   0.630308D+00 -0.572482D+00  0.762048D-01 -0.105830D+00
      3  -0.139384D+00  0.126596D+00 -0.168516D-01  0.234028D-01
      4  -0.498245D+00  0.452534D+00 -0.602383D-01  0.836564D-01

 Beta transition density matrix between excited states   2 and   1
                 1             2             3             4 
      1   0.276839D+00 -0.251441D+00  0.334701D-01 -0.464819D-01
      2   0.630308D+00 -0.572482D+00  0.762048D-01 -0.105830D+00
      3  -0.139384D+00  0.126596D+00 -0.168516D-01  0.234028D-01
      4  -0.498245D+00  0.452534D+00 -0.602383D-01  0.836564D-01

 Alpha transition density matrix between excited states   3 and   1
                 1             2             3             4 
      1   0.662059D-01 -0.206660D+00 -0.270531D+00  0.382751D+00
      2   0.150738D+00 -0.470524D+00 -0.615947D+00  0.871449D+00
      3  -0.333336D-01  0.104050D+00  0.136208D+00 -0.192709D+00
      4  -0.119155D+00  0.371939D+00  0.486893D+00 -0.688861D+00

 Beta transition density matrix between excited states   3 and   1
                 1             2             3             4 
      1   0.662059D-01 -0.206660D+00 -0.270531D+00  0.382751D+00
      2   0.150738D+00 -0.470524D+00 -0.615947D+00  0.871449D+00
      3  -0.333336D-01  0.104050D+00  0.136208D+00 -0.192709D+00
      4  -0.119155D+00  0.371939D+00  0.486893D+00 -0.688861D+00

 Alpha transition density matrix between excited states   3 and   2
                 1             2             3             4 
      1   0.172526D+00 -0.538537D+00 -0.704980D+00  0.997414D+00
      2  -0.156698D+00  0.489131D+00  0.640303D+00 -0.905909D+00
      3   0.208586D-01 -0.651097D-01 -0.852328D-01  0.120588D+00
      4  -0.289676D-01  0.904216D-01  0.118368D+00 -0.167468D+00

 Beta transition density matrix between excited states   3 and   2
                 1             2             3             4 
      1   0.172526D+00 -0.538537D+00 -0.704980D+00  0.997414D+00
      2  -0.156698D+00  0.489131D+00  0.640303D+00 -0.905909D+00
      3   0.208586D-01 -0.651097D-01 -0.852328D-01  0.120588D+00
      4  -0.289676D-01  0.904216D-01  0.118368D+00 -0.167468D+00
 Excited to excited state transition electric dipole moments (Au):
     state I   state J         X           Y           Z        Dip. S.      Osc.
         2        1        -0.0000     -0.0000     -0.4847      0.2349      0.0969
         3        1        -0.0000     -0.0000     -0.1892      0.0358      0.0298
         3        2        -0.0000     -0.0000      0.8947      0.8005      0.3358
 Excited to excited state transition velocity dipole moments (Au):
     state I   state J         X           Y           Z        Dip. S.      Osc.
         2        1        -0.0000     -0.0000      0.1759      0.0309      0.0333
         3        1        -0.0000     -0.0000      0.1556      0.0242      0.0129
         3        2        -0.0000     -0.0000     -0.1927      0.0371      0.0393
 Excited to excited state transition magnetic dipole moments (Au):
     state I   state J         X           Y           Z
         2        1        -0.0000     -0.0000     -0.0000
         3        1        -0.0000     -0.0000     -0.0000
         3        2        -0.0000     -0.0000     -0.0000

 Excitation energies and oscillator strengths:
 
 Excited state symmetry could not be determined.
 Excited State   1:      Singlet-?Sym   28.0071 eV   44.27 nm  f=0.4625  <S**2>=0.000
       1 ->  2         0.70499
       1 ->  3         0.05374
       1 ->  4        -0.01035
 This state for optimization and/or second-order correction.
 Total Energy, E(CIS/TDA) =  -1.88061388111    
 Copying the excited state density for this state as the 1-particle RhoCI density.
    CIS Density (Total): 
                1             2             3             4 
      1  0.263414D+00
      2  0.483071D+00  0.110142D+01
      3  0.288243D-01 -0.245380D+00  0.415857D+00
      4 -0.298821D+00 -0.871760D+00  0.415315D+00  0.825332D+00
 
 Excited state symmetry could not be determined.
 Excited State   2:      Singlet-?Sym   44.8501 eV   27.64 nm  f=0.2095  <S**2>=0.000
       1 ->  2        -0.05406
       1 ->  3         0.70465
       1 ->  4        -0.02323
 
 Excited state symmetry could not be determined.
 Excited State   3:      Singlet-?Sym   61.9719 eV   20.01 nm  f=0.0000  <S**2>=0.000
       1 ->  2         0.00855
       1 ->  3         0.02395
       1 ->  4         0.70665
 SavETr:  write IOETrn=   770 NScale= 10 NData=  16 NLR=1 NState=    3 LETran=      64.
 Leave Link  914 at Tue Jun 27 13:38:44 2023, MaxMem=  4294967296 cpu:              10.9 elap:               2.2
 (Enter /opt/gaussian/gdv-20180628-i14+/gdv/l601.exe)
 GetPMM: IRwPM=  824 LRwPM=    0 LPMAll=    2
 GetPCM: File not found, return IValue=0.
 Copying SCF densities to generalized density rwf, IOpCl= 0 IROHF=0.

 **********************************************************************

            Population analysis using the SCF Density.

 **********************************************************************

 Alpha  occ. eigenvalues --   -1.63277
 Alpha virt. eigenvalues --   -0.26311   0.43940   1.07632
     Density Matrix:
                           1         2         3         4
   1 1   H  1S          0.10189
   2        2S         -0.00136   0.00002
   3 2   He 1S          0.27160  -0.00364   0.72399
   4        2S          0.16715  -0.00224   0.44557   0.27422
          Condensed to atoms (all electrons):
               1          2
     1  H    0.100109   0.168283
     2  He   0.168283   1.563324
 Mulliken charges:
               1
     1  H    0.731608
     2  He   0.268392
 Sum of Mulliken charges =   1.00000
 Mulliken charges with hydrogens summed into heavy atoms:
               1
     2  He   1.000000
 DipInt: DoE/N= T F RetVal/Mat= T F Init=T NMatP=  1 IDeriv=0 Min/MaxMlt=  0  4
 Entering OneElI...
 OneElI was handed  4294967104 working-precision words.
 Multipole integrals L=0 to 4 MinM= 0 MaxM= 0.
 Requested accuracy = 0.1000D-12
 ShPair: Thresh= 1.00D-13 NBox=     0 BxSize= 0.00D+00 RnKept= 1.46D+00
         NSMCal=                   10 NSMKep=                  10
 PrmmSu-InSpLW:  IPartL=    0 NPrtUS=    1 NPrtUL=    1 DoSpLW=F IThBeg=    0 IThEnd=    0 NThAct=    1.
 PrSmSu:  IncTry=   512 NBBP=             10 NTPThr=   100 NPartT=    1 Incr=           1 LDynOK=F GPUOK=F.
 PrsmSu:  NPrtUS=   1 ThrOK=F IAlg=2 LenDen=           0 ISkipM=0 DoSpLW=F IThBeg=    0 IThEnd=    0.
 Prism:   IPart=     0 DynPar=F LinDyn=F Incr=           1.
 PRISM was handed  4294965428 working-precision words and    10 shell-pairs
 IPart=  0 NShTot=          10 NBatch=           3 AvBLen=         3.3
 PrsmSu-ThDecC:  IPartSL=    0    0 NPrtUSL=    1    1 IThBeg=    0 IThEnd=    0 CPU=   -1 GPU=   -1 NThAct=    1.
 PrSmSu:  NxtVal=              2.
 Electronic moments (au):
         -2.00000000         -0.00000000         -0.00000000         -1.04684695
         -0.65608204         -0.65608204         -1.57288050         -0.00000000
         -0.00000000         -0.00000000         -0.00000000         -0.00000000
         -1.55305071         -0.00000000         -0.00000000         -0.32947375
         -0.00000000         -0.00000000         -0.32947375         -0.00000000
         -0.97990892         -0.97990892         -3.21868159         -0.00000000
         -0.00000000         -0.00000000         -0.00000000         -0.00000000
         -0.00000000         -0.32663631         -0.62033781         -0.62033781
         -0.00000000         -0.00000000         -0.00000000
 Electronic spatial extent (au):  <R**2>=              2.8850
 DipInt: DoE/N= F T RetVal/Mat= T F Init=T NMatP=  1 IDeriv=0 Min/MaxMlt=  0  4
 Nuclear    moments (au):
          3.00000000          0.00000000          0.00000000          0.72943428
          0.00000000          0.00000000          1.59622312          0.00000000
          0.00000000          0.00000000          0.00000000          0.00000000
          0.38811329          0.00000000          0.00000000          0.00000000
          0.00000000          0.00000000          0.00000000          0.00000000
          0.00000000          0.00000000          0.84930942          0.00000000
          0.00000000          0.00000000          0.00000000          0.00000000
          0.00000000          0.00000000          0.00000000          0.00000000
          0.00000000          0.00000000          0.00000000
 Total      moments (au):
          1.00000000          0.00000000          0.00000000         -0.31741267
         -0.65608204         -0.65608204          0.02334263          0.00000000
          0.00000000          0.00000000          0.00000000          0.00000000
         -1.16493742          0.00000000          0.00000000         -0.32947375
          0.00000000          0.00000000         -0.32947375          0.00000000
         -0.97990892         -0.97990892         -2.36937217          0.00000000
          0.00000000          0.00000000          0.00000000          0.00000000
          0.00000000         -0.32663631         -0.62033781         -0.62033781
          0.00000000          0.00000000          0.00000000
 Charge=              1.0000 electrons
 Dipole moment (field-independent basis, Debye):
    X=              0.0000    Y=              0.0000    Z=             -0.8068  Tot=              0.8068
 Quadrupole moment (field-independent basis, Debye-Ang):
   XX=             -0.8825   YY=             -0.8825   ZZ=              0.0314
   XY=              0.0000   XZ=              0.0000   YZ=              0.0000
 Traceless Quadrupole moment (field-independent basis, Debye-Ang):
   XX=             -0.3046   YY=             -0.3046   ZZ=              0.6092
   XY=              0.0000   XZ=              0.0000   YZ=              0.0000
 Octapole moment (field-independent basis, Debye-Ang**2):
  XXX=              0.0000  YYY=              0.0000  ZZZ=             -0.8292  XYY=              0.0000
  XXY=              0.0000  XXZ=             -0.2345  XZZ=              0.0000  YZZ=              0.0000
  YYZ=             -0.2345  XYZ=              0.0000
 Hexadecapole moment (field-independent basis, Debye-Ang**3):
 XXXX=             -0.3691 YYYY=             -0.3691 ZZZZ=             -0.8924 XXXY=              0.0000
 XXXZ=              0.0000 YYYX=              0.0000 YYYZ=              0.0000 ZZZX=              0.0000
 ZZZY=              0.0000 XXYY=             -0.1230 XXZZ=             -0.2336 YYZZ=             -0.2336
 XXYZ=              0.0000 YYXZ=              0.0000 ZZXY=              0.0000
 N-N= 1.370925416891D+00 E-N=-8.229394511870D+00  KE= 2.933378713739D+00
 Leave Link  601 at Tue Jun 27 13:38:44 2023, MaxMem=  4294967296 cpu:               1.2 elap:               0.3
 (Enter /opt/gaussian/gdv-20180628-i14+/gdv/l9999.exe)
 Electronic transition elements 
                 1             2             3 
      1  -0.188061D+01 -0.126165D+01 -0.632427D+00
      2   0.000000D+00  0.000000D+00  0.000000D+00
      3   0.000000D+00  0.000000D+00  0.000000D+00
      4   0.820987D+00  0.436644D+00 -0.846076D-03
      5   0.000000D+00  0.000000D+00  0.000000D+00
      6   0.000000D+00  0.000000D+00  0.000000D+00
      7  -0.614496D+00 -0.381070D+00  0.766795D-01
      8   0.000000D+00  0.000000D+00  0.000000D+00
      9   0.000000D+00  0.000000D+00  0.000000D+00
     10   0.000000D+00  0.000000D+00  0.000000D+00
     11   0.185731D+00 -0.682127D+00  0.551384D+00
     12   0.185731D+00 -0.682127D+00  0.551384D+00
     13   0.169485D-01 -0.487950D+00  0.543305D+00
     14   0.000000D+00  0.000000D+00  0.000000D+00
     15   0.000000D+00  0.000000D+00  0.000000D+00
     16   0.000000D+00  0.000000D+00  0.000000D+00

 Test job not archived.
 1\1\GINC-NODE15\SP\RCIS-FC\6-31G\H1He1(1+)\KRANKA\27-Jun-2023\0\\#p hf
 /6-31g CIS(NStates=30,Root=1,AllTransitionDensities,Singlets) nosymm I
 Op(3/33=3,3/36=1,4/33=3,5/33=3,5/72=-3,6/8=1,6/33=3,8/10=90,9/33=3,9/4
 0=3)\\CIS calculation\\1,1\H,0,0.,0.,-0.386\He,0,0.,0.,0.386\\Version=
 ES64L-GDVRevI.14+\HF=-2.9098544\RMSD=1.262e-09\PG=C*V [C*(H1He1)]\\@


 THE MEEK SHALL INHERIT THE EARTH.
 (THE REST OF US WILL ESCAPE TO THE STARS)
 Job cpu time:       0 days  0 hours  0 minutes 46.1 seconds.
 Elapsed time:       0 days  0 hours  0 minutes 10.0 seconds.
 File lengths (MBytes):  RWF=      6 Int=      0 D2E=      0 Chk=      2 Scr=      1
 Normal termination of Gaussian DV at Tue Jun 27 13:38:44 2023.
